 Gaussian 09, Revision A.02,
 Gaussian 09:  EM64L-G09RevA.02 11-Jun-2009

 --------------------------------------
 # opt M062X/6-311+G* geom=connectivity
 --------------------------------------

 -------------------
 Title Card Required
 -------------------
 Symbolic Z-matrix:
 Charge =  0 Multiplicity = 1

 SCF Done:  E(RM062X) =  -1162.13238984     A.U. after   14 cycles
 SCF Done:  E(RM062X) =  -1162.15110655     A.U. after   12 cycles
 SCF Done:  E(RM062X) =  -1162.16738794     A.U. after   13 cycles
 SCF Done:  E(RM062X) =  -1162.16947813     A.U. after   12 cycles
 SCF Done:  E(RM062X) =  -1162.17251628     A.U. after   13 cycles
 SCF Done:  E(RM062X) =  -1162.17453458     A.U. after   13 cycles
 SCF Done:  E(RM062X) =  -1162.17831550     A.U. after   15 cycles
 SCF Done:  E(RM062X) =  -1162.17926623     A.U. after   11 cycles
 SCF Done:  E(RM062X) =  -1162.17991242     A.U. after   12 cycles
 SCF Done:  E(RM062X) =  -1162.18014578     A.U. after   11 cycles
 SCF Done:  E(RM062X) =  -1162.19462845     A.U. after   10 cycles
 SCF Done:  E(RM062X) =  -1162.19463937     A.U. after   10 cycles
 SCF Done:  E(RM062X) =  -1162.19465658     A.U. after   10 cycles
 SCF Done:  E(RM062X) =  -1162.19466433     A.U. after   10 cycles
 SCF Done:  E(RM062X) =  -1162.19467316     A.U. after   10 cycles
 SCF Done:  E(RM062X) =  -1162.19467437     A.U. after    9 cycles
 SCF Done:  E(RM062X) =  -1162.19467502     A.U. after    8 cycles
 SCF Done:  E(RM062X) =  -1162.19467466     A.U. after    8 cycles
 SCF Done:  E(RM062X) =  -1162.19467484     A.U. after    8 cycles
 SCF Done:  E(RM062X) =  -1162.19467480     A.U. after    7 cycles
 Optimization completed.
    -- Stationary point found.

                         Standard orientation:
 ---------------------------------------------------------------------
 Center     Atomic      Atomic             Coordinates (Angstroms)
 Number     Number       Type             X           Y           Z
 ---------------------------------------------------------------------
      1          6           0        0.662100    2.526467    1.228234
      2          6           0       -0.646564    2.792316    0.993291
      3          6           0        0.184092    1.850655   -0.804853
      4          7           0        1.167546    1.949589    0.083927
      5          1           0        1.271426    2.681989    2.101749
      6          1           0       -1.408012    3.212741    1.627224
      7          1           0        0.241032    1.348510   -1.756116
      8          7           0       -0.920514    2.373735   -0.287626
      9          6           0       -2.256158    2.211918   -0.855135
     10          1           0       -2.759987    1.414777   -0.308494
     11          1           0       -2.796902    3.153816   -0.776017
     12          1           0       -2.160058    1.907811   -1.893429
     13          6           0        2.472281    1.283917   -0.054129
     14          1           0        2.926770    1.619649   -0.989124
     15          1           0        3.095971    1.644811    0.765943
     16          6           0        2.301811   -0.229552   -0.013753
     17          1           0        1.735293   -0.503479    0.880733
     18          1           0        1.683412   -0.546080   -0.860194
     19          6           0        3.634685   -0.967862   -0.052239
     20          1           0        4.193358   -0.684825   -0.952339
     21          1           0        4.251204   -0.666011    0.802900
     22          6           0        3.418584   -2.479025   -0.029021
     23          1           0        2.804951   -2.796484   -0.874254
     24          1           0        4.367835   -3.017112   -0.066914
     25          1           0        2.886175   -2.780428    0.875269
     26         16           0       -1.046182   -1.140929   -0.207239
     27          8           0       -0.202012   -2.321901   -0.077966
     28          8           0       -0.897466   -0.176973    0.901091
     29          8           0       -1.030021   -0.491664   -1.525011
     30          8           0       -2.595065   -1.659998   -0.107756
     31          6           0       -2.877283   -2.458911    1.036157
     32          1           0       -2.650713   -1.907513    1.952301
     33          1           0       -3.941153   -2.684006    0.991138
     34          1           0       -2.295696   -3.381811    1.007160
 ---------------------------------------------------------------------

 The electronic state is 1-A.
 Alpha  occ. eigenvalues --  -90.08828 -19.62019 -19.56646 -19.56258 -19.56031
 Alpha  occ. eigenvalues --  -14.85969 -14.85881 -10.65945 -10.61840 -10.61638
 Alpha  occ. eigenvalues --  -10.61366 -10.60012 -10.55869 -10.53879 -10.53579
 Alpha  occ. eigenvalues --  -10.51071  -8.42387  -6.34721  -6.34580  -6.34557
 Alpha  occ. eigenvalues --   -1.24232  -1.21418  -1.11787  -1.08846  -1.07461
 Alpha  occ. eigenvalues --   -1.06842  -0.93499  -0.90367  -0.87119  -0.82697
 Alpha  occ. eigenvalues --   -0.77951  -0.75877  -0.74493  -0.71489  -0.67446
 Alpha  occ. eigenvalues --   -0.65638  -0.64392  -0.60239  -0.58013  -0.56978
 Alpha  occ. eigenvalues --   -0.56508  -0.55654  -0.55514  -0.54283  -0.53382
 Alpha  occ. eigenvalues --   -0.53175  -0.52563  -0.49829  -0.49482  -0.49130
 Alpha  occ. eigenvalues --   -0.48972  -0.47753  -0.45995  -0.42942  -0.42628
 Alpha  occ. eigenvalues --   -0.41737  -0.40066  -0.39317  -0.38706  -0.37887
 Alpha  occ. eigenvalues --   -0.37479  -0.36683  -0.35856  -0.33888  -0.33356
 Alpha  occ. eigenvalues --   -0.31817  -0.29936
 Alpha virt. eigenvalues --   -0.01453   0.00177   0.00354   0.01463   0.02037
 Alpha virt. eigenvalues --    0.02521   0.02917   0.03155   0.04030   0.04247
 Alpha virt. eigenvalues --    0.05037   0.05360   0.06143   0.06555   0.06721

 Mulliken atomic charges:
              1
     1  C   -0.238072
     2  C   -0.235753
     3  C   -0.649368
     4  N    0.575953
     5  H    0.268593
     6  H    0.277043
     7  H    0.361758
     8  N    0.415923
     9  C   -0.736027
    10  H    0.355934
    11  H    0.261815
    12  H    0.294153
    13  C   -1.192690
    14  H    0.294087
    15  H    0.262715
    16  C    0.118601
    17  H    0.318196
    18  H    0.292383
    19  C   -0.558153
    20  H    0.251463
    21  H    0.249727
    22  C   -1.014472
    23  H    0.285522
    24  H    0.256845
    25  H    0.281625
    26  S    0.167007
    27  O   -0.209960
    28  O   -0.359196
    29  O   -0.335290
    30  O   -0.134210
    31  C   -0.719682
    32  H    0.267951
    33  H    0.249673
    34  H    0.275906
 Sum of Mulliken atomic charges =   0.00000

 Dipole moment (field-independent basis, Debye):
    X=              2.2363    Y=              8.6850    Z=              1.6649  Tot=              9.1216
 Quadrupole moment (field-independent basis, Debye-Ang):
   XX=            -92.2215   YY=            -97.8147   ZZ=           -103.2024
   XY=             -2.1638   XZ=             -3.0488   YZ=             -2.4791

 Normal termination of Gaussian 09 at Wed Mar 15 11:08:45 2017.
