 Gaussian 09, Revision A.02,
 Gaussian 09:  EM64L-G09RevA.02 11-Jun-2009

 --------------------------------------
 # opt M062X/6-311+G* geom=connectivity
 --------------------------------------

 -------------------
 Title Card Required
 -------------------
 Symbolic Z-matrix:
 Charge =  0 Multiplicity = 2

 SCF Done:  E(UM062X) =  -253.530652151     A.U. after   20 cycles
 SCF Done:  E(UM062X) =  -253.533322270     A.U. after   19 cycles
 SCF Done:  E(UM062X) =  -253.533465516     A.U. after   18 cycles
 SCF Done:  E(UM062X) =  -253.533481001     A.U. after   18 cycles
 SCF Done:  E(UM062X) =  -253.533483687     A.U. after   18 cycles
 SCF Done:  E(UM062X) =  -253.533484176     A.U. after   17 cycles
 SCF Done:  E(UM062X) =  -253.533484263     A.U. after   16 cycles
 Optimization completed.
    -- Stationary point found.

                         Standard orientation:
 ---------------------------------------------------------------------
 Center     Atomic      Atomic             Coordinates (Angstroms)
 Number     Number       Type             X           Y           Z
 ---------------------------------------------------------------------
      1          6           0       -2.103432   -0.442644   -0.336871
      2          1           0       -2.085707   -0.413385   -1.431771
      3          1           0       -2.830216   -1.213159   -0.063386
      4          6           0       -0.726916   -0.865151    0.178737
      5          1           0       -0.764325   -0.968830    1.269893
      6          1           0       -0.482698   -1.856490   -0.218700
      7          6           0        0.386645    0.114912   -0.195464
      8          1           0        0.221211    1.085114    0.281594
      9          1           0        0.383661    0.291901   -1.276621
     10          6           0        1.736629   -0.439124    0.234730
     11          1           0        1.962884   -1.381597   -0.266254
     12          1           0        1.778335   -0.603214    1.312800
     13          7           0        2.865316    0.492957   -0.093558
     14          1           0        3.783470    0.098638    0.199047
     15          1           0        2.927484    0.679213   -1.115285
     16          1           0        2.762532    1.409651    0.387397
     17          6           0       -2.566828    0.907054    0.206699
     18          1           0       -1.946122    1.728227   -0.158244
     19          1           0       -3.594797    1.120016   -0.092414
     20          1           0       -2.529512    0.922936    1.299861
 ---------------------------------------------------------------------

 The electronic state is 2-A.
 Alpha  occ. eigenvalues --  -14.85740 -10.60983 -10.55960 -10.55011 -10.54361
 Alpha  occ. eigenvalues --  -10.53176  -1.10818  -0.92842  -0.86797  -0.78981
 Alpha  occ. eigenvalues --   -0.73210  -0.67455  -0.65624  -0.63438  -0.57660
 Alpha  occ. eigenvalues --   -0.56050  -0.53230  -0.51264  -0.47813  -0.46123
 Alpha  occ. eigenvalues --   -0.45690  -0.43255  -0.40359  -0.40206  -0.39884
 Alpha  occ. eigenvalues --   -0.10896
 Alpha virt. eigenvalues --    0.01101   0.01370   0.01922   0.03381   0.03718
 Alpha virt. eigenvalues --    0.04350   0.05319   0.06436   0.06867   0.07844
 Alpha virt. eigenvalues --    0.08343   0.08902   0.09656   0.11124   0.11862

  Beta  occ. eigenvalues --  -14.85277 -10.60946 -10.55937 -10.54999 -10.54361
  Beta  occ. eigenvalues --  -10.53176  -1.10026  -0.92728  -0.86647  -0.78834
  Beta  occ. eigenvalues --   -0.73083  -0.67384  -0.65369  -0.63166  -0.57384
  Beta  occ. eigenvalues --   -0.55963  -0.53187  -0.51208  -0.47763  -0.46076
  Beta  occ. eigenvalues --   -0.45618  -0.43239  -0.40346  -0.40200  -0.39842
  Beta virt. eigenvalues --   -0.02973   0.00659   0.01015   0.01295   0.03097
  Beta virt. eigenvalues --    0.03980   0.04253   0.04581   0.06056   0.07257
  Beta virt. eigenvalues --    0.07874   0.08472   0.08504   0.09435   0.10877

 Mulliken atomic charges:
              1
     1  C   -0.568534
     2  H    0.261326
     3  H    0.259836
     4  C   -0.852257
     5  H    0.270453
     6  H    0.259236
     7  C   -0.120552
     8  H    0.272897
     9  H    0.273211
    10  C   -1.964604
    11  H    0.304622
    12  H    0.307029
    13  N    0.124167
    14  H    0.426404
    15  H    0.424661
    16  H    0.426531
    17  C   -0.886092
    18  H    0.257951
    19  H    0.266141
    20  H    0.257572
 Sum of Mulliken atomic charges =   0.00000

 Dipole moment (field-independent basis, Debye):
    X=             -2.8398    Y=             -1.2585    Z=              0.2755  Tot=              3.1184
 Quadrupole moment (field-independent basis, Debye-Ang):
   XX=            -58.2538   YY=            -49.1501   ZZ=            -49.5227
   XY=             -2.2055   XZ=              0.6381   YZ=             -0.5906

 Normal termination of Gaussian 09 at Wed Mar  8 17:52:54 2017.
