 Gaussian 09, Revision A.02,
 Gaussian 09:  IA32M-G09RevA.02 11-Jun-2009

 ---------
 # PM6 opt
 ---------

 -------------------
 Title Card Required
 -------------------
 Symbolic Z-matrix:
 Charge =  0 Multiplicity = 1

 SCF Done:  E(RPM6) =  0.170506409850     A.U. after   21 cycles
 SCF Done:  E(RPM6) =  0.141193474904     A.U. after   16 cycles
 SCF Done:  E(RPM6) =  0.109949088688     A.U. after   15 cycles
 SCF Done:  E(RPM6) =  0.878071464762E-01 A.U. after   15 cycles
 SCF Done:  E(RPM6) =  0.738394775583E-01 A.U. after   14 cycles
 SCF Done:  E(RPM6) =  0.626975136381E-01 A.U. after   13 cycles
 SCF Done:  E(RPM6) =  0.553387427824E-01 A.U. after   13 cycles
 SCF Done:  E(RPM6) =  0.491228556104E-01 A.U. after   14 cycles
 SCF Done:  E(RPM6) =  0.446146771199E-01 A.U. after   13 cycles
 SCF Done:  E(RPM6) =  0.359754186271E-01 A.U. after   14 cycles
 SCF Done:  E(RPM6) = -0.131741053270E-01 A.U. after   10 cycles
 SCF Done:  E(RPM6) = -0.131802807518E-01 A.U. after   10 cycles
 SCF Done:  E(RPM6) = -0.131896553486E-01 A.U. after   11 cycles
 SCF Done:  E(RPM6) = -0.132008131561E-01 A.U. after   11 cycles
 SCF Done:  E(RPM6) = -0.132025030721E-01 A.U. after   10 cycles
 SCF Done:  E(RPM6) = -0.132031811475E-01 A.U. after   10 cycles
 SCF Done:  E(RPM6) = -0.132036259260E-01 A.U. after   10 cycles
 SCF Done:  E(RPM6) = -0.132040329857E-01 A.U. after   10 cycles
 SCF Done:  E(RPM6) = -0.132041534180E-01 A.U. after    9 cycles
 SCF Done:  E(RPM6) = -0.132042031796E-01 A.U. after    9 cycles
 Optimization completed.
    -- Stationary point found.

                         Standard orientation:
 ---------------------------------------------------------------------
 Center     Atomic      Atomic             Coordinates (Angstroms)
 Number     Number       Type             X           Y           Z
 ---------------------------------------------------------------------
      1          6           0        0.428477   -1.573059   -0.494725
      2          6           0        1.301106    0.208530    0.721699
      3          6           0        1.774368   -1.762101   -0.425140
      4          1           0        1.304729    0.617648    1.751376
      5          1           0        2.384398   -2.539772   -0.848954
      6          1           0       -0.324571   -2.159644   -0.991380
      7          6           0       -1.103800    0.396912   -0.076295
      8          1           0       -1.084164    1.330223    0.533298
      9          1           0       -1.021270    0.717206   -1.139894
     10          6           0       -2.410728   -0.370781    0.170247
     11          1           0       -2.446903   -1.284772   -0.452696
     12          1           0       -2.446612   -0.727363    1.219535
     13          6           0       -3.626001    0.516825   -0.129178
     14          1           0       -3.598808    1.423798    0.507208
     15          1           0       -3.582213    0.879971   -1.175262
     16          6           0       -4.935920   -0.232429    0.100917
     17          1           0       -5.028996   -0.576270    1.137727
     18          1           0       -5.799953    0.408580   -0.109522
     19          1           0       -5.018030   -1.114185   -0.544889
     20          6           0        3.712494   -0.273656    0.135012
     21          1           0        4.431357   -1.104943    0.225714
     22          1           0        3.795422    0.163082   -0.876723
     23          1           0        3.997807    0.509563    0.859238
     24          7           0        0.054389   -0.449335    0.323037
     25          7           0        2.356603   -0.773712    0.448432
     26         17           0        1.571817    1.797457   -0.324134
 ---------------------------------------------------------------------

 The electronic state is 1-A.
 Alpha  occ. eigenvalues --   -1.23292  -1.12215  -1.04592  -0.99102  -0.96767
 Alpha  occ. eigenvalues --   -0.93095  -0.89561  -0.82219  -0.77850  -0.76496
 Alpha  occ. eigenvalues --   -0.74213  -0.65864  -0.60964  -0.59651  -0.57599
 Alpha  occ. eigenvalues --   -0.56379  -0.55258  -0.54082  -0.53036  -0.52618
 Alpha  occ. eigenvalues --   -0.50284  -0.49490  -0.48941  -0.46115  -0.45054
 Alpha  occ. eigenvalues --   -0.44405  -0.43227  -0.42234  -0.39276  -0.38868
 Alpha  occ. eigenvalues --   -0.37547  -0.30922
 Alpha virt. eigenvalues --    0.01584   0.02374   0.05546   0.07284   0.12513
 Alpha virt. eigenvalues --    0.13237   0.14311   0.15381   0.16376   0.16970
 Alpha virt. eigenvalues --    0.17296   0.18071   0.18711   0.19000   0.19541

 Mulliken atomic charges:
              1
     1  C   -0.104042
     2  C    0.299533
     3  C   -0.129467
     4  H    0.166650
     5  H    0.175975
     6  H    0.174909
     7  C   -0.107708
     8  H    0.152654
     9  H    0.143374
    10  C   -0.284905
    11  H    0.139858
    12  H    0.152058
    13  C   -0.219842
    14  H    0.130235
    15  H    0.129603
    16  C   -0.462194
    17  H    0.149195
    18  H    0.147588
    19  H    0.147947
    20  C   -0.304501
    21  H    0.158099
    22  H    0.160719
    23  H    0.166133
    24  N   -0.293220
    25  N   -0.252149
    26  Cl  -0.436501
 Sum of Mulliken atomic charges =   0.00000

 Dipole moment (field-independent basis, Debye):
    X=             -0.7029    Y=             -2.1741    Z=             -0.0152  Tot=              2.2849
 N-N= 3.780377120901D+02 E-N=-6.038935842135D+02  KE=-1.109838959699D+02
 1\1\GINC-D-173-250-154-13\FOpt\RPM6\ZDO\C8H15Cl1N2\JPFAENDT\02-Mar-201
 7\0\\# PM6 opt\\Title Card Required\\0,1\C,-11.8223360757,2.8922733069
 ,21.6730960495\C,-10.1785711953,4.4101971495,22.3127632562\C,-12.24014
 43022,4.1227106929,21.2687929038\H,-9.1325730199,4.6859360465,22.07301
 17483\H,-13.1495773723,4.4142153282,20.7743397009\H,-12.3107461303,1.9
 371638822,21.589124481\C,-10.057538551,2.0671615141,23.2881578833\H,-9
 .0956285186,2.4440866357,23.7073426609\H,-10.7886953621,2.0758901041,2
 4.1283816384\C,-9.8736258751,0.6484847114,22.7298315606\H,-10.83206174
 17,0.2593999549,22.3364358804\H,-9.185567799,0.6713926269,21.860638480

 Normal termination of Gaussian 09 at Thu Mar  2 15:30:46 2017.
