 Gaussian 09, Revision A.02,
 Gaussian 09:  IA32M-G09RevA.02 11-Jun-2009

 --------------------
 # M062X/6-311+G* opt
 --------------------

 -------------------
 Title Card Required
 -------------------
 Symbolic Z-matrix:
 Charge = -1 Multiplicity = 1

 SCF Done:  E(RM062X) =  -460.268034469     A.U. after    8 cycles

 The electronic state is 1-A1G.
 Alpha  occ. eigenvalues -- -102.34306  -9.48354  -7.20461  -7.20461  -7.20461
 Alpha  occ. eigenvalues --   -0.56722  -0.08130  -0.08130  -0.08130
 Alpha virt. eigenvalues --    0.25409   0.25409   0.25409   0.25860   0.73153
 Alpha virt. eigenvalues --    0.73153   0.73153   1.12841   1.25612   1.25612
 Alpha virt. eigenvalues --    1.25612   1.25612   1.25612   2.57135   2.57135

 Mulliken atomic charges:
              1
     1  Cl  -1.000000
 Sum of Mulliken atomic charges =  -1.00000

 Dipole moment (field-independent basis, Debye):
    X=              0.0000    Y=              0.0000    Z=              0.0000  Tot=              0.0000
 Quadrupole moment (field-independent basis, Debye-Ang):
   XX=            -17.2937   YY=            -17.2937   ZZ=            -17.2937
   XY=              0.0000   XZ=              0.0000   YZ=              0.0000

 Optimization completed.
    -- Stationary point found.

                         Standard orientation:
 ---------------------------------------------------------------------
 Center     Atomic      Atomic             Coordinates (Angstroms)
 Number     Number       Type             X           Y           Z
 ---------------------------------------------------------------------
      1         17           0        0.000000    0.000000    0.000000
 ---------------------------------------------------------------------

 Normal termination of Gaussian 09 at Thu Mar  2 15:36:17 2017.
