 Gaussian 09, Revision E.01,
 Gaussian 09:  ES64L-G09RevE.01 30-Nov-2015

 ---------------------
 #n B3LYP/6-31G(d) Opt
 ---------------------

 ------------------
 Ethane B3LYP 3-21G
 ------------------
 Symbolic Z-matrix:
 Charge =  0 Multiplicity = 1

 SCF Done:  E(RB3LYP) =  -79.8288035927     A.U. after   10 cycles
 SCF Done:  E(RB3LYP) =  -79.8303910343     A.U. after   10 cycles
 SCF Done:  E(RB3LYP) =  -79.8304187278     A.U. after    6 cycles
 Optimization completed.
    -- Stationary point found.

                         Standard orientation:
 ---------------------------------------------------------------------
 Center     Atomic      Atomic             Coordinates (Angstroms)
 Number     Number       Type             X           Y           Z
 ---------------------------------------------------------------------
      1          6           0       -0.765742    0.000000    0.000002
      2          6           0        0.765742    0.000000   -0.000002
      3          1           0       -1.164007   -0.949793   -0.374592
      4          1           0       -1.163963    0.799348   -0.635219
      5          1           0       -1.163898    0.150490    1.009873
      6          1           0        1.163898   -0.150491   -1.009873
      7          1           0        1.163963   -0.799348    0.635219
      8          1           0        1.164007    0.949793    0.374591
 ---------------------------------------------------------------------

 The electronic state is 1-A.
 Alpha  occ. eigenvalues --  -10.17232 -10.17211  -0.74731  -0.61199  -0.43013
 Alpha  occ. eigenvalues --   -0.43013  -0.36248  -0.34023  -0.34022
 Alpha virt. eigenvalues --    0.10477   0.15614   0.16388   0.16389   0.19019
 Alpha virt. eigenvalues --    0.19020   0.24213   0.51333   0.54372   0.54373
 Alpha virt. eigenvalues --    0.63656   0.63659   0.66804   0.88331   0.88332

 Mulliken charges:
               1
     1  C   -0.432939
     2  C   -0.432939
     3  H    0.144314
     4  H    0.144311
     5  H    0.144314
     6  H    0.144314
     7  H    0.144311
     8  H    0.144314
 Sum of Mulliken charges =   0.00000

 Dipole moment (field-independent basis, Debye):
    X=              0.0000    Y=              0.0000    Z=              0.0000  Tot=              0.0000
 Quadrupole moment (field-independent basis, Debye-Ang):
   XX=            -15.2356   YY=            -14.7111   ZZ=            -14.7112
   XY=              0.0001   XZ=              0.0001   YZ=              0.0000

 Normal termination of Gaussian 09 at Tue Feb 21 18:45:18 2017.
