 Gaussian 09, Revision E.01,
 Gaussian 09:  ES64L-G09RevE.01 30-Nov-2015

 --------------------
 #n B3LYP/LANL2DZ Opt
 --------------------

 --------------------
 Ethane B3LYP LANL2DZ
 --------------------
 Symbolic Z-matrix:
 Charge =  0 Multiplicity = 1

 SCF Done:  E(RB3LYP) =  -79.8185615810     A.U. after   10 cycles
 SCF Done:  E(RB3LYP) =  -79.8188572935     A.U. after    8 cycles
 SCF Done:  E(RB3LYP) =  -79.8188742340     A.U. after    6 cycles
 SCF Done:  E(RB3LYP) =  -79.8188752114     A.U. after    5 cycles
 Optimization completed.
    -- Stationary point found.

                         Standard orientation:
 ---------------------------------------------------------------------
 Center     Atomic      Atomic             Coordinates (Angstroms)
 Number     Number       Type             X           Y           Z
 ---------------------------------------------------------------------
      1          6           0       -0.770723    0.039897    0.000014
      2          6           0        0.770723   -0.039897   -0.000014
      3          1           0       -1.148656    0.395175    0.967715
      4          1           0       -1.217886   -0.944023   -0.193462
      5          1           0       -1.131325    0.729806   -0.774245
      6          1           0        1.131325   -0.729806    0.774245
      7          1           0        1.217886    0.944023    0.193462
      8          1           0        1.148656   -0.395175   -0.967715
 ---------------------------------------------------------------------

 The electronic state is 1-AG.
 Alpha  occ. eigenvalues --  -10.17092 -10.17073  -0.74567  -0.61257  -0.42904
 Alpha  occ. eigenvalues --   -0.42903  -0.36058  -0.33923  -0.33922
 Alpha virt. eigenvalues --    0.12580   0.13515   0.19582   0.19584   0.21659
 Alpha virt. eigenvalues --    0.21660   0.24034   0.29174   0.29259   0.29259
 Alpha virt. eigenvalues --    0.32903   0.32904   0.48553   0.91744   1.03747

 Mulliken charges:
               1
     1  C   -0.590020
     2  C   -0.590020
     3  H    0.196672
     4  H    0.196672
     5  H    0.196676
     6  H    0.196676
     7  H    0.196672
     8  H    0.196672
 Sum of Mulliken charges =   0.00000

 Dipole moment (field-independent basis, Debye):
    X=              0.0000    Y=              0.0000    Z=              0.0000  Tot=              0.0000
 Quadrupole moment (field-independent basis, Debye-Ang):
   XX=            -15.0565   YY=            -14.5634   ZZ=            -14.5617
   XY=              0.0255   XZ=              0.0000   YZ=              0.0000

 Normal termination of Gaussian 09 at Tue Feb 21 17:15:23 2017.
