 Gaussian 09, Revision E.01,
 Gaussian 09:  ES64L-G09RevE.01 30-Nov-2015

 -----------------------
 #n B3LYP/6-31G(d,p) Opt
 -----------------------

 --------------------
 Ethane B3LYP 6-31Gdp
 --------------------
 Symbolic Z-matrix:
 Charge =  0 Multiplicity = 1

 SCF Done:  E(RB3LYP) =  -79.8384802930     A.U. after    9 cycles
 SCF Done:  E(RB3LYP) =  -79.8387150376     A.U. after    8 cycles
 SCF Done:  E(RB3LYP) =  -79.8387396265     A.U. after    6 cycles
 Optimization completed.
    -- Stationary point found.

                         Standard orientation:
 ---------------------------------------------------------------------
 Center     Atomic      Atomic             Coordinates (Angstroms)
 Number     Number       Type             X           Y           Z
 ---------------------------------------------------------------------
      1          6           0       -0.764226    0.039557    0.000014
      2          6           0        0.764226   -0.039557   -0.000014
      3          1           0       -1.145624    0.393595    0.963606
      4          1           0       -1.214561   -0.939924   -0.192640
      5          1           0       -1.128365    0.726807   -0.770957
      6          1           0        1.128365   -0.726807    0.770957
      7          1           0        1.214561    0.939924    0.192640
      8          1           0        1.145624   -0.393595   -0.963606
 ---------------------------------------------------------------------

 The electronic state is 1-AG.
 Alpha  occ. eigenvalues --  -10.17265 -10.17244  -0.74759  -0.61195  -0.42940
 Alpha  occ. eigenvalues --   -0.42939  -0.36305  -0.33921  -0.33920
 Alpha virt. eigenvalues --    0.10498   0.15612   0.16394   0.16395   0.19005
 Alpha virt. eigenvalues --    0.19006   0.24189   0.50814   0.53946   0.53947
 Alpha virt. eigenvalues --    0.61917   0.61921   0.66591   0.86649   0.86649

 Mulliken charges:
               1
     1  C   -0.314661
     2  C   -0.314661
     3  H    0.104886
     4  H    0.104886
     5  H    0.104888
     6  H    0.104888
     7  H    0.104886
     8  H    0.104886
 Sum of Mulliken charges =   0.00000

 Dipole moment (field-independent basis, Debye):
    X=              0.0000    Y=              0.0000    Z=              0.0000  Tot=              0.0000
 Quadrupole moment (field-independent basis, Debye-Ang):
   XX=            -15.1761   YY=            -14.7265   ZZ=            -14.7250
   XY=              0.0232   XZ=             -0.0001   YZ=              0.0000

 Normal termination of Gaussian 09 at Tue Feb 21 16:54:24 2017.
