 Gaussian 09, Revision E.01,
 Gaussian 09:  ES64L-G09RevE.01 30-Nov-2015

 ---------------------
 #n B3LYP/6-31G(d) Opt
 ---------------------

 -------------------
 Ethane B3LYP 6-31Gd
 -------------------
 Symbolic Z-matrix:
 Charge =  0 Multiplicity = 1

 SCF Done:  E(RB3LYP) =  -79.8301468316     A.U. after    9 cycles
 SCF Done:  E(RB3LYP) =  -79.8303953578     A.U. after    8 cycles
 SCF Done:  E(RB3LYP) =  -79.8304185280     A.U. after    6 cycles
 Optimization completed.
    -- Stationary point found.

                         Standard orientation:
 ---------------------------------------------------------------------
 Center     Atomic      Atomic             Coordinates (Angstroms)
 Number     Number       Type             X           Y           Z
 ---------------------------------------------------------------------
      1          6           0       -0.764523    0.039573    0.000014
      2          6           0        0.764523   -0.039573   -0.000014
      3          1           0       -1.145656    0.394038    0.964878
      4          1           0       -1.214683   -0.941241   -0.192894
      5          1           0       -1.128373    0.727690   -0.771974
      6          1           0        1.128373   -0.727690    0.771974
      7          1           0        1.214683    0.941241    0.192894
      8          1           0        1.145656   -0.394038   -0.964878
 ---------------------------------------------------------------------

 The electronic state is 1-AG.
 Alpha  occ. eigenvalues --  -10.17244 -10.17223  -0.74729  -0.61193  -0.43004
 Alpha  occ. eigenvalues --   -0.43003  -0.36270  -0.34011  -0.34010
 Alpha virt. eigenvalues --    0.10474   0.15599   0.16368   0.16368   0.19016
 Alpha virt. eigenvalues --    0.19017   0.24231   0.51328   0.54375   0.54376
 Alpha virt. eigenvalues --    0.63679   0.63684   0.66819   0.88299   0.88299

 Mulliken charges:
               1
     1  C   -0.432796
     2  C   -0.432796
     3  H    0.144265
     4  H    0.144264
     5  H    0.144267
     6  H    0.144267
     7  H    0.144264
     8  H    0.144265
 Sum of Mulliken charges =   0.00000

 Dipole moment (field-independent basis, Debye):
    X=              0.0000    Y=              0.0000    Z=              0.0000  Tot=              0.0000
 Quadrupole moment (field-independent basis, Debye-Ang):
   XX=            -15.2312   YY=            -14.7158   ZZ=            -14.7142
   XY=              0.0266   XZ=             -0.0001   YZ=              0.0000

 Normal termination of Gaussian 09 at Tue Feb 21 16:53:50 2017.
