 Gaussian 09, Revision E.01,
 Gaussian 09:  ES64L-G09RevE.01 30-Nov-2015

 -------------------
 #n B3LYP/STO-3G Opt
 -------------------

 -------------------
 Ethane B3LYP STO-3G
 -------------------
 Symbolic Z-matrix:
 Charge =  0 Multiplicity = 1

 SCF Done:  E(RB3LYP) =  -78.8853893462     A.U. after    8 cycles
 SCF Done:  E(RB3LYP) =  -78.8858625151     A.U. after    8 cycles
 SCF Done:  E(RB3LYP) =  -78.8859015794     A.U. after    5 cycles
 Optimization completed.
    -- Stationary point found.

                         Standard orientation:
 ---------------------------------------------------------------------
 Center     Atomic      Atomic             Coordinates (Angstroms)
 Number     Number       Type             X           Y           Z
 ---------------------------------------------------------------------
      1          6           0       -0.774570    0.040087    0.000013
      2          6           0        0.774570   -0.040087   -0.000013
      3          1           0       -1.146036    0.396901    0.973071
      4          1           0       -1.215662   -0.949721   -0.194536
      5          1           0       -1.128609    0.733383   -0.778528
      6          1           0        1.128609   -0.733383    0.778528
      7          1           0        1.215662    0.949721    0.194536
      8          1           0        1.146036   -0.396901   -0.973071
 ---------------------------------------------------------------------

 The electronic state is 1-AG.
 Alpha  occ. eigenvalues --  -10.00380 -10.00278  -0.71210  -0.58303  -0.40019
 Alpha  occ. eigenvalues --   -0.40018  -0.32274  -0.31050  -0.31049
 Alpha virt. eigenvalues --    0.40492   0.40492   0.41886   0.46733   0.50279
 Alpha virt. eigenvalues --    0.50947   0.50949

 Mulliken charges:
               1
     1  C   -0.215979
     2  C   -0.215979
     3  H    0.071994
     4  H    0.071992
     5  H    0.071994
     6  H    0.071994
     7  H    0.071992
     8  H    0.071994
 Sum of Mulliken charges =   0.00000

 Dipole moment (field-independent basis, Debye):
    X=              0.0000    Y=              0.0000    Z=              0.0000  Tot=              0.0000
 Quadrupole moment (field-independent basis, Debye-Ang):
   XX=            -14.1462   YY=            -13.8123   ZZ=            -13.8112
   XY=              0.0173   XZ=              0.0000   YZ=              0.0000

 Normal termination of Gaussian 09 at Tue Feb 21 17:15:22 2017.
