 Gaussian 09, Revision A.02,
 Gaussian 09:  EM64L-G09RevA.02 11-Jun-2009

 --------------------------------------
 # opt M062X/6-311+G* geom=connectivity
 --------------------------------------

 -------------------
 Title Card Required
 -------------------
 Symbolic Z-matrix:
 Charge =  0 Multiplicity = 1

 SCF Done:  E(RM062X) =  -403.383934801     A.U. after   15 cycles
 SCF Done:  E(RM062X) =  -403.413794727     A.U. after   13 cycles
 SCF Done:  E(RM062X) =  -403.437570582     A.U. after   13 cycles
 SCF Done:  E(RM062X) =  -403.444292269     A.U. after   12 cycles
 SCF Done:  E(RM062X) =  -403.446601656     A.U. after   13 cycles
 SCF Done:  E(RM062X) =  -403.448762758     A.U. after   12 cycles
 SCF Done:  E(RM062X) =  -403.450604643     A.U. after   12 cycles
 SCF Done:  E(RM062X) =  -403.454564526     A.U. after   12 cycles
 SCF Done:  E(RM062X) =  -403.459299043     A.U. after   13 cycles
 SCF Done:  E(RM062X) =  -403.463274479     A.U. after   13 cycles
 SCF Done:  E(RM062X) =  -403.491559833     A.U. after   10 cycles
 SCF Done:  E(RM062X) =  -403.491685666     A.U. after   10 cycles
 SCF Done:  E(RM062X) =  -403.491685724     A.U. after   10 cycles
 SCF Done:  E(RM062X) =  -403.491685103     A.U. after   10 cycles
 SCF Done:  E(RM062X) =  -403.491685241     A.U. after   10 cycles
 SCF Done:  E(RM062X) =  -403.491684909     A.U. after   10 cycles
 SCF Done:  E(RM062X) =  -403.491684704     A.U. after   10 cycles
 SCF Done:  E(RM062X) =  -403.491684157     A.U. after   10 cycles
 SCF Done:  E(RM062X) =  -403.491683278     A.U. after   10 cycles
 SCF Done:  E(RM062X) =  -403.491684407     A.U. after   10 cycles
 Optimization completed.
    -- Stationary point found.

                         Standard orientation:
 ---------------------------------------------------------------------
 Center     Atomic      Atomic             Coordinates (Angstroms)
 Number     Number       Type             X           Y           Z
 ---------------------------------------------------------------------
      1          6           0       -3.272163   -1.605190    0.241348
      2          1           0       -3.460997   -1.496314    1.312530
      3          1           0       -2.537667   -2.404048    0.114092
      4          1           0       -4.202395   -1.928509   -0.229449
      5          6           0       -2.764836   -0.298587   -0.360961
      6          1           0       -2.612199   -0.425431   -1.438142
      7          1           0       -3.525399    0.481682   -0.245845
      8          6           0       -1.457539    0.161227    0.280099
      9          1           0       -0.693347   -0.613870    0.161913
     10          1           0       -1.609175    0.294020    1.359494
     11          6           0       -0.944287    1.462226   -0.319013
     12          1           0       -1.702713    2.247813   -0.217347
     13          1           0       -0.754246    1.325494   -1.387307
     14          7           0        0.334628    1.848766    0.310216
     15          1           0        0.656502    2.741013   -0.052097
     16          1           0        0.204450    1.972469    1.310456
     17          1           0        1.386837    0.550160   -0.123770
     18          6           0        3.046810   -0.376169    0.170849
     19          1           0        3.248195    0.436033    0.894977
     20          8           0        1.877308   -0.260544   -0.441084
     21          8           0        3.824172   -1.262321   -0.022035
 ---------------------------------------------------------------------

 The electronic state is 1-A.
 Alpha  occ. eigenvalues --  -19.64085 -19.59766 -14.77595 -10.65740 -10.58584
 Alpha  occ. eigenvalues --  -10.54619 -10.54347 -10.52993  -1.21274  -1.12955
 Alpha  occ. eigenvalues --   -1.03308  -0.90574  -0.82254  -0.72701  -0.70244
 Alpha  occ. eigenvalues --   -0.68176  -0.64543  -0.60103  -0.57110  -0.54235
 Alpha  occ. eigenvalues --   -0.52268  -0.50984  -0.50932  -0.49677  -0.46516
 Alpha  occ. eigenvalues --   -0.45497  -0.43608  -0.41117  -0.40492  -0.40079
 Alpha  occ. eigenvalues --   -0.37427  -0.36112  -0.33847
 Alpha virt. eigenvalues --   -0.00652   0.01608   0.01804   0.02883   0.03856
 Alpha virt. eigenvalues --    0.04440   0.04942   0.05347   0.05940   0.06775
 Alpha virt. eigenvalues --    0.07280   0.08155   0.08769   0.09156   0.09264

 Mulliken atomic charges:
              1
     1  C   -0.966020
     2  H    0.253405
     3  H    0.264756
     4  H    0.264499
     5  C   -0.361347
     6  H    0.259414
     7  H    0.250807
     8  C   -0.341790
     9  H    0.287574
    10  H    0.235440
    11  C   -0.612183
    12  H    0.246486
    13  H    0.291636
    14  N   -0.845101
    15  H    0.371084
    16  H    0.358482
    17  H    0.523883
    18  C    0.007815
    19  H    0.179485
    20  O   -0.348037
    21  O   -0.320288
 Sum of Mulliken atomic charges =   0.00000

 Dipole moment (field-independent basis, Debye):
    X=             -4.6109    Y=              5.2209    Z=              1.6705  Tot=              7.1630
 Quadrupole moment (field-independent basis, Debye-Ang):
   XX=            -67.4133   YY=            -48.9238   ZZ=            -50.3469
   XY=             11.1962   XZ=              3.3647   YZ=              0.4350

 1\1\GINC-N0293\FOpt\RM062X\6-311+G(d)\C5H13N1O2\WAB665\08-Mar-2017\0\\
 # opt M062X/6-311+G* geom=connectivity\\Title Card Required\\0,1\C,0.7
 198943089,-0.3603817877,2.0257625123\H,0.6050311957,-1.2850742779,2.59
 73336389\H,1.3305671159,-0.5870147859,1.1485117939\H,-0.2695250412,-0.
 0604097859,1.675644942\C,1.3681132265,0.7302437643,2.872944072\H,1.444
 3960794,1.6531660016,2.2880492716\H,0.7284688855,0.9603267253,3.732272
 5054\C,2.7582359792,0.3296343352,3.3612906644\H,3.4020118835,0.1044766
 667,2.504792072\H,2.6838732559,-0.5928086524,3.9522987438\C,3.41172054

 Normal termination of Gaussian 09 at Wed Mar  8 19:00:09 2017.
