 Gaussian 09, Revision E.01,
 Gaussian 09:  ES64L-G09RevE.01 30-Nov-2015

 -------------------
 #n CCSD/LANL2DZ Opt
 -------------------

 -------------------
 Ethene CCSD LANL2DZ
 -------------------
 Symbolic Z-matrix:
 Charge =  0 Multiplicity = 1

 SCF Done:  E(RHF) =  -78.0110654662     A.U. after    9 cycles
 E2 =    -0.1692332828D+00 EUMP2 =    -0.78180298749061D+02
 SCF Done:  E(RHF) =  -78.0083953475     A.U. after    8 cycles
 E2 =    -0.1741584117D+00 EUMP2 =    -0.78182553759284D+02
 SCF Done:  E(RHF) =  -78.0087630610     A.U. after    7 cycles
 E2 =    -0.1738403929D+00 EUMP2 =    -0.78182603453917D+02
 Optimization completed.
    -- Stationary point found.

                         Standard orientation:
 ---------------------------------------------------------------------
 Center     Atomic      Atomic             Coordinates (Angstroms)
 Number     Number       Type             X           Y           Z
 ---------------------------------------------------------------------
      1          6           0       -0.684850    0.000000    0.000000
      2          6           0        0.684850    0.000000    0.000000
      3          1           0       -1.262391    0.933621    0.000000
      4          1           0       -1.262391   -0.933621    0.000001
      5          1           0        1.262391    0.933621    0.000001
      6          1           0        1.262391   -0.933621    0.000000
 ---------------------------------------------------------------------

 The electronic state is 1-A.
 Alpha  occ. eigenvalues --  -11.24977 -11.24839  -1.02702  -0.79252  -0.63765
 Alpha  occ. eigenvalues --   -0.58235  -0.50494  -0.36929
 Alpha virt. eigenvalues --    0.13872   0.25889   0.28682   0.35715   0.39382
 Alpha virt. eigenvalues --    0.41636   0.44530   0.48330   0.49364   0.60779
 Alpha virt. eigenvalues --    0.66775   0.79159   0.85834   1.21630   1.31087

 Mulliken charges:
               1
     1  C   -0.356993
     2  C   -0.356993
     3  H    0.178497
     4  H    0.178497
     5  H    0.178497
     6  H    0.178497
 Sum of Mulliken charges =   0.00000

 Dipole moment (field-independent basis, Debye):
    X=              0.0000    Y=              0.0000    Z=              0.0000  Tot=              0.0000
 Quadrupole moment (field-independent basis, Debye-Ang):
   XX=            -12.0788   YY=            -12.3675   ZZ=            -16.4425
   XY=              0.0000   XZ=              0.0000   YZ=              0.0000

 Normal termination of Gaussian 09 at Tue Feb 21 18:00:10 2017.
