 Gaussian 09, Revision E.01,
 Gaussian 09:  ES64L-G09RevE.01 30-Nov-2015

 ----------------------
 #n CCSD/6-31G(d,p) Opt
 ----------------------

 -------------------
 Ethene CCSD 6-31Gdp
 -------------------
 Symbolic Z-matrix:
 Charge =  0 Multiplicity = 1

 SCF Done:  E(RHF) =  -78.0383400595     A.U. after    9 cycles
 E2 =    -0.2786276272D+00 EUMP2 =    -0.78316967686750D+02
 SCF Done:  E(RHF) =  -78.0381491720     A.U. after    7 cycles
 E2 =    -0.2791163410D+00 EUMP2 =    -0.78317265512998D+02
 SCF Done:  E(RHF) =  -78.0382361276     A.U. after    7 cycles
 E2 =    -0.2790369517D+00 EUMP2 =    -0.78317273079356D+02
 Optimization completed.
    -- Stationary point found.

                         Standard orientation:
 ---------------------------------------------------------------------
 Center     Atomic      Atomic             Coordinates (Angstroms)
 Number     Number       Type             X           Y           Z
 ---------------------------------------------------------------------
      1          6           0       -0.668229    0.000000    0.000000
      2          6           0        0.668229    0.000000    0.000000
      3          1           0       -1.236400    0.920680    0.000000
      4          1           0       -1.236400   -0.920680    0.000000
      5          1           0        1.236400    0.920680    0.000001
      6          1           0        1.236400   -0.920680    0.000000
 ---------------------------------------------------------------------

 The electronic state is 1-A.
 Alpha  occ. eigenvalues --  -11.22927 -11.22764  -1.02650  -0.78872  -0.63601
 Alpha  occ. eigenvalues --   -0.58102  -0.50201  -0.36989
 Alpha virt. eigenvalues --    0.17789   0.26498   0.29265   0.30806   0.39004
 Alpha virt. eigenvalues --    0.49099   0.66241   0.76081   0.77626   0.85134
 Alpha virt. eigenvalues --    0.88958   0.95099   1.08470   1.11836   1.17453

 Mulliken charges:
               1
     1  C   -0.256882
     2  C   -0.256882
     3  H    0.128441
     4  H    0.128441
     5  H    0.128441
     6  H    0.128441
 Sum of Mulliken charges =   0.00000

 Dipole moment (field-independent basis, Debye):
    X=              0.0000    Y=              0.0000    Z=              0.0000  Tot=              0.0000
 Quadrupole moment (field-independent basis, Debye-Ang):
   XX=            -11.9885   YY=            -12.2312   ZZ=            -15.4392
   XY=              0.0000   XZ=              0.0000   YZ=              0.0000

 Normal termination of Gaussian 09 at Tue Feb 21 17:59:56 2017.
