 Gaussian 09, Revision E.01,
 Gaussian 09:  ES64L-G09RevE.01 30-Nov-2015

 ------------------
 #n CCSD/STO-3G Opt
 ------------------

 ------------------
 Ethene CCSD STO-3G
 ------------------
 Symbolic Z-matrix:
 Charge =  0 Multiplicity = 1

 SCF Done:  E(RHF) =  -77.0730974662     A.U. after    7 cycles
 E2 =    -0.1212651008D+00 EUMP2 =    -0.77194362566959D+02
 SCF Done:  E(RHF) =  -77.0667879796     A.U. after    7 cycles
 E2 =    -0.1279014501D+00 EUMP2 =    -0.77194689429694D+02
 SCF Done:  E(RHF) =  -77.0683897109     A.U. after    6 cycles
 E2 =    -0.1267310963D+00 EUMP2 =    -0.77195120807167D+02
 SCF Done:  E(RHF) =  -77.0684285065     A.U. after    5 cycles
 E2 =    -0.1266930884D+00 EUMP2 =    -0.77195121594906D+02
 Optimization completed.
    -- Stationary point found.

                         Standard orientation:
 ---------------------------------------------------------------------
 Center     Atomic      Atomic             Coordinates (Angstroms)
 Number     Number       Type             X           Y           Z
 ---------------------------------------------------------------------
      1          6           0       -0.677452    0.000000    0.000000
      2          6           0        0.677452    0.000000    0.000000
      3          1           0       -1.261702    0.939193    0.000000
      4          1           0       -1.261702   -0.939193   -0.000001
      5          1           0        1.261702    0.939193   -0.000001
      6          1           0        1.261702   -0.939193    0.000000
 ---------------------------------------------------------------------

 The electronic state is 1-A.
 Alpha  occ. eigenvalues --  -11.01994 -11.01929  -0.96572  -0.73723  -0.58867
 Alpha  occ. eigenvalues --   -0.52358  -0.45513  -0.31646
 Alpha virt. eigenvalues --    0.31363   0.61038   0.66445   0.67174   0.90826
 Alpha virt. eigenvalues --    0.96054

 Mulliken charges:
               1
     1  C   -0.117169
     2  C   -0.117169
     3  H    0.058585
     4  H    0.058585
     5  H    0.058585
     6  H    0.058585
 Sum of Mulliken charges =   0.00000

 Dipole moment (field-independent basis, Debye):
    X=              0.0000    Y=              0.0000    Z=              0.0000  Tot=              0.0000
 Quadrupole moment (field-independent basis, Debye-Ang):
   XX=            -11.8835   YY=            -11.8076   ZZ=            -13.5153
   XY=              0.0000   XZ=              0.0000   YZ=              0.0000

 Normal termination of Gaussian 09 at Tue Feb 21 17:50:41 2017.
