 Gaussian 09, Revision E.01,
 Gaussian 09:  ES64L-G09RevE.01 30-Nov-2015

 --------------------
 #n CCSD/6-31G(d) Opt
 --------------------

 ------------------
 Ethene CCSD 6-31Gd
 ------------------
 Symbolic Z-matrix:
 Charge =  0 Multiplicity = 1

 SCF Done:  E(RHF) =  -78.0311719265     A.U. after    9 cycles
 E2 =    -0.2535797491D+00 EUMP2 =    -0.78284751675666D+02
 SCF Done:  E(RHF) =  -78.0305913624     A.U. after    7 cycles
 E2 =    -0.2543950926D+00 EUMP2 =    -0.78284986454964D+02
 SCF Done:  E(RHF) =  -78.0307193347     A.U. after    7 cycles
 E2 =    -0.2542809711D+00 EUMP2 =    -0.78285000305779D+02
 Optimization completed.
    -- Stationary point found.

                         Standard orientation:
 ---------------------------------------------------------------------
 Center     Atomic      Atomic             Coordinates (Angstroms)
 Number     Number       Type             X           Y           Z
 ---------------------------------------------------------------------
      1          6           0       -0.668952    0.000000    0.000000
      2          6           0        0.668952    0.000000    0.000000
      3          1           0       -1.241949    0.924927    0.000000
      4          1           0       -1.241949   -0.924927    0.000001
      5          1           0        1.241949    0.924927    0.000001
      6          1           0        1.241949   -0.924927    0.000000
 ---------------------------------------------------------------------

 The electronic state is 1-A.
 Alpha  occ. eigenvalues --  -11.23092 -11.22930  -1.02522  -0.78730  -0.63456
 Alpha  occ. eigenvalues --   -0.58156  -0.50174  -0.36984
 Alpha virt. eigenvalues --    0.17863   0.26400   0.29049   0.30573   0.39025
 Alpha virt. eigenvalues --    0.49068   0.66923   0.76621   0.77617   0.85294
 Alpha virt. eigenvalues --    0.88944   0.95060   1.10762   1.15403   1.19869

 Mulliken charges:
               1
     1  C   -0.354029
     2  C   -0.354029
     3  H    0.177014
     4  H    0.177014
     5  H    0.177014
     6  H    0.177014
 Sum of Mulliken charges =   0.00000

 Dipole moment (field-independent basis, Debye):
    X=              0.0000    Y=              0.0000    Z=              0.0000  Tot=              0.0000
 Quadrupole moment (field-independent basis, Debye-Ang):
   XX=            -11.9710   YY=            -12.2598   ZZ=            -15.5092
   XY=              0.0000   XZ=              0.0000   YZ=              0.0000

 Normal termination of Gaussian 09 at Tue Feb 21 17:54:47 2017.
