 Gaussian 09, Revision E.01,
 Gaussian 09:  ES64L-G09RevE.01 30-Nov-2015

 ---------------------
 #n B3LYP/6-31G(d) Opt
 ---------------------

 -----
 Title
 -----
 Symbolic Z-matrix:
 Charge =  0 Multiplicity = 1

 SCF Done:  E(RB3LYP) =  -78.5872794040     A.U. after   10 cycles
 SCF Done:  E(RB3LYP) =  -78.5874499058     A.U. after    9 cycles
 SCF Done:  E(RB3LYP) =  -78.5874577780     A.U. after    6 cycles
 SCF Done:  E(RB3LYP) =  -78.5874583007     A.U. after    6 cycles
 Optimization completed.
    -- Stationary point found.

                         Standard orientation:
 ---------------------------------------------------------------------
 Center     Atomic      Atomic             Coordinates (Angstroms)
 Number     Number       Type             X           Y           Z
 ---------------------------------------------------------------------
      1          6           0        0.665470    0.000000    0.000000
      2          6           0       -0.665470    0.000000    0.000000
      3          1           0        1.239584   -0.923594    0.000000
      4          1           0        1.239584    0.923594    0.000000
      5          1           0       -1.239584   -0.923594    0.000000
      6          1           0       -1.239584    0.923594    0.000000
 ---------------------------------------------------------------------

 The electronic state is 1-A.
 Alpha  occ. eigenvalues --  -10.18428 -10.18338  -0.75474  -0.57733  -0.46467
 Alpha  occ. eigenvalues --   -0.41641  -0.35321  -0.26663
 Alpha virt. eigenvalues --    0.01879   0.12236   0.14024   0.15756   0.24406
 Alpha virt. eigenvalues --    0.33237   0.48035   0.54846   0.56855   0.63727
 Alpha virt. eigenvalues --    0.65524   0.69903   0.84748   0.87218   0.93170

 Mulliken charges:
               1
     1  C   -0.285451
     2  C   -0.285451
     3  H    0.142726
     4  H    0.142726
     5  H    0.142726
     6  H    0.142726
 Sum of Mulliken charges =   0.00000

 Dipole moment (field-independent basis, Debye):
    X=              0.0000    Y=              0.0000    Z=              0.0000  Tot=              0.0000
 Quadrupole moment (field-independent basis, Debye-Ang):
   XX=            -11.9972   YY=            -12.1182   ZZ=            -15.0313
   XY=              0.0000   XZ=              0.0000   YZ=              0.0000

 Normal termination of Gaussian 09 at Fri Feb 24 00:12:16 2017.
