 Gaussian 09, Revision E.01,
 Gaussian 09:  ES64L-G09RevE.01 30-Nov-2015

 -------------------
 #n MP2/6-31G(d) Opt
 -------------------

 -----
 Title
 -----
 Symbolic Z-matrix:
 Charge =  0 Multiplicity = 1

 SCF Done:  E(RHF) =  -78.0311716919     A.U. after    9 cycles
 E2 =    -0.2535802439D+00 EUMP2 =    -0.78284751935828D+02
 SCF Done:  E(RHF) =  -78.0308785172     A.U. after    7 cycles
 E2 =    -0.2541436046D+00 EUMP2 =    -0.78285022121866D+02
 SCF Done:  E(RHF) =  -78.0309722205     A.U. after    7 cycles
 E2 =    -0.2540553730D+00 EUMP2 =    -0.78285027593462D+02
 Optimization completed.
    -- Stationary point found.

                         Standard orientation:
 ---------------------------------------------------------------------
 Center     Atomic      Atomic             Coordinates (Angstroms)
 Number     Number       Type             X           Y           Z
 ---------------------------------------------------------------------
      1          6           0        0.668311    0.000000    0.000000
      2          6           0       -0.668310    0.000000    0.000000
      3          1           0        1.237913   -0.923516    0.000000
      4          1           0        1.237912    0.923516    0.000000
      5          1           0       -1.237913   -0.923515    0.000000
      6          1           0       -1.237913    0.923516    0.000000
 ---------------------------------------------------------------------

 The electronic state is 1-A.
 Alpha  occ. eigenvalues --  -11.22985 -11.22822  -1.02608  -0.78800  -0.63607
 Alpha  occ. eigenvalues --   -0.58158  -0.50271  -0.36999
 Alpha virt. eigenvalues --    0.17903   0.26440   0.29150   0.30699   0.39054
 Alpha virt. eigenvalues --    0.49065   0.66849   0.76653   0.77615   0.85238
 Alpha virt. eigenvalues --    0.88992   0.95198   1.10956   1.15603   1.20119

 Mulliken charges:
               1
     1  C   -0.354274
     2  C   -0.354274
     3  H    0.177137
     4  H    0.177137
     5  H    0.177137
     6  H    0.177137
 Sum of Mulliken charges =   0.00000

 Dipole moment (field-independent basis, Debye):
    X=              0.0000    Y=              0.0000    Z=              0.0000  Tot=              0.0000
 Quadrupole moment (field-independent basis, Debye-Ang):
   XX=            -11.9816   YY=            -12.2441   ZZ=            -15.4906
   XY=              0.0000   XZ=              0.0000   YZ=              0.0000

 Normal termination of Gaussian 09 at Fri Feb 24 00:13:10 2017.
