 Gaussian 09, Revision E.01,
 Gaussian 09:  ES64L-G09RevE.01 30-Nov-2015

 ---------------------
 #n M062X/6-31G(d) Opt
 ---------------------

 ---------------
 CH3_M062X/3-21G
 ---------------
 Symbolic Z-matrix:
 Charge =  0 Multiplicity = 1

 SCF Done:  E(RM062X) =  -79.7716369568     A.U. after   12 cycles
 SCF Done:  E(RM062X) =  -79.7718148145     A.U. after    7 cycles
 SCF Done:  E(RM062X) =  -79.7718333942     A.U. after    7 cycles
 Optimization completed.
    -- Stationary point found.

                         Standard orientation:
 ---------------------------------------------------------------------
 Center     Atomic      Atomic             Coordinates (Angstroms)
 Number     Number       Type             X           Y           Z
 ---------------------------------------------------------------------
      1          6           0       -0.407764    0.644736    0.000025
      2          6           0        0.407764   -0.644736   -0.000025
      3          1           0       -1.346070    0.520187    0.548464
      4          1           0       -0.657924    0.955233   -1.018631
      5          1           0        0.144971    1.463225    0.470292
      6          1           0       -0.144971   -1.463225   -0.470292
      7          1           0        0.657924   -0.955233    1.018631
      8          1           0        1.346070   -0.520187   -0.548464
 ---------------------------------------------------------------------

 The electronic state is 1-AG.
 Alpha  occ. eigenvalues --  -10.52944 -10.52909  -0.84503  -0.69670  -0.49912
 Alpha  occ. eigenvalues --   -0.49902  -0.42355  -0.39998  -0.39988
 Alpha virt. eigenvalues --    0.15070   0.20645   0.21253   0.21256   0.23676
 Alpha virt. eigenvalues --    0.23679   0.28842   0.56035   0.58892   0.58899
 Alpha virt. eigenvalues --    0.68607   0.68615   0.73521   0.95087   0.95096

 Mulliken charges:
               1
     1  C   -0.478717
     2  C   -0.478717
     3  H    0.159544
     4  H    0.159569
     5  H    0.159603
     6  H    0.159603
     7  H    0.159569
     8  H    0.159544
 Sum of Mulliken charges =   0.00000

 Dipole moment (field-independent basis, Debye):
    X=              0.0000    Y=              0.0000    Z=              0.0000  Tot=              0.0000
 Quadrupole moment (field-independent basis, Debye-Ang):
   XX=            -14.8979   YY=            -15.1289   ZZ=            -14.7427
   XY=              0.2439   XZ=              0.0007   YZ=              0.0013

 Normal termination of Gaussian 09 at Thu Feb 23 18:28:10 2017.
