 Gaussian 09, Revision E.01,
 Gaussian 09:  ES64L-G09RevE.01 30-Nov-2015

 ---------------------
 #n B3LYP/6-31G(d) Opt
 ---------------------

 ---------------
 CH3_B3LYP/3-21G
 ---------------
 Symbolic Z-matrix:
 Charge =  0 Multiplicity = 1

 SCF Done:  E(RB3LYP) =  -79.8301496450     A.U. after   10 cycles
 SCF Done:  E(RB3LYP) =  -79.8303964502     A.U. after    9 cycles
 SCF Done:  E(RB3LYP) =  -79.8304194721     A.U. after    6 cycles
 Optimization completed.
    -- Stationary point found.

                         Standard orientation:
 ---------------------------------------------------------------------
 Center     Atomic      Atomic             Coordinates (Angstroms)
 Number     Number       Type             X           Y           Z
 ---------------------------------------------------------------------
      1          6           0       -0.409277    0.646984    0.000015
      2          6           0        0.409277   -0.646984   -0.000015
      3          1           0       -1.349983    0.523884    0.549313
      4          1           0       -0.660744    0.959869   -1.020144
      5          1           0        0.143282    1.468488    0.470831
      6          1           0       -0.143282   -1.468488   -0.470831
      7          1           0        0.660744   -0.959869    1.020144
      8          1           0        1.349983   -0.523884   -0.549313
 ---------------------------------------------------------------------

 The electronic state is 1-AG.
 Alpha  occ. eigenvalues --  -10.17244 -10.17223  -0.74729  -0.61193  -0.43004
 Alpha  occ. eigenvalues --   -0.43003  -0.36268  -0.34012  -0.34011
 Alpha virt. eigenvalues --    0.10474   0.15600   0.16369   0.16369   0.19016
 Alpha virt. eigenvalues --    0.19017   0.24229   0.51329   0.54375   0.54376
 Alpha virt. eigenvalues --    0.63679   0.63682   0.66817   0.88299   0.88301

 Mulliken charges:
               1
     1  C   -0.432805
     2  C   -0.432805
     3  H    0.144273
     4  H    0.144264
     5  H    0.144268
     6  H    0.144268
     7  H    0.144264
     8  H    0.144273
 Sum of Mulliken charges =   0.00000

 Dipole moment (field-independent basis, Debye):
    X=              0.0000    Y=              0.0000    Z=              0.0000  Tot=              0.0000
 Quadrupole moment (field-independent basis, Debye-Ang):
   XX=            -14.8624   YY=            -15.0847   ZZ=            -14.7142
   XY=              0.2345   XZ=             -0.0002   YZ=             -0.0001

 Normal termination of Gaussian 09 at Thu Feb 23 18:24:49 2017.
