 Gaussian 09, Revision E.01,
 Gaussian 09:  ES64L-G09RevE.01 30-Nov-2015

 ---------------------
 #n B3LYP/6-31G(d) Opt
 ---------------------

 --------------
 CH_B3LYP/3-21G
 --------------
 Symbolic Z-matrix:
 Charge =  0 Multiplicity = 1

 SCF Done:  E(RB3LYP) =  -77.3255424987     A.U. after   10 cycles
 SCF Done:  E(RB3LYP) =  -77.3256450747     A.U. after    7 cycles
 SCF Done:  E(RB3LYP) =  -77.3256461804     A.U. after    5 cycles
 Optimization completed.
    -- Stationary point found.

                         Standard orientation:
 ---------------------------------------------------------------------
 Center     Atomic      Atomic             Coordinates (Angstroms)
 Number     Number       Type             X           Y           Z
 ---------------------------------------------------------------------
      1          6           0        0.000000    0.000000    0.602488
      2          6           0        0.000000    0.000000   -0.602488
      3          1           0        0.000000    0.000000    1.669132
      4          1           0        0.000000    0.000000   -1.669132
 ---------------------------------------------------------------------

 The electronic state is 1-SGG.
 Alpha  occ. eigenvalues --  -10.19217 -10.18976  -0.74262  -0.56539  -0.49158
 Alpha  occ. eigenvalues --   -0.28192  -0.28192
 Alpha virt. eigenvalues --    0.05243   0.05243   0.10558   0.14883   0.42673
 Alpha virt. eigenvalues --    0.47082   0.53292   0.53292   0.65425   0.65425
 Alpha virt. eigenvalues --    0.74675   0.82440   1.02846   1.21765   1.50514

 Mulliken charges:
               1
     1  C   -0.188313
     2  C   -0.188313
     3  H    0.188313
     4  H    0.188313
 Sum of Mulliken charges =   0.00000

 Dipole moment (field-independent basis, Debye):
    X=              0.0000    Y=              0.0000    Z=              0.0000  Tot=              0.0000
 Quadrupole moment (field-independent basis, Debye-Ang):
   XX=            -13.0251   YY=            -13.0251   ZZ=             -6.7619
   XY=              0.0000   XZ=              0.0000   YZ=              0.0000

 Normal termination of Gaussian 09 at Thu Feb 23 18:16:34 2017.
