 Gaussian 09, Revision E.01,
 Gaussian 09:  ES64L-G09RevE.01 30-Nov-2015

 -------------------
 #n MP2/6-31G(d) Opt
 -------------------

 ------------
 CH_MP2/3-21G
 ------------
 Symbolic Z-matrix:
 Charge =  0 Multiplicity = 1

 SCF Done:  E(RHF) =  -76.8169243466     A.U. after    9 cycles
 E2 =    -0.2494920047D+00 EUMP2 =    -0.77066416351298D+02
 SCF Done:  E(RHF) =  -76.8152955026     A.U. after    7 cycles
 E2 =    -0.2514966269D+00 EUMP2 =    -0.77066792129449D+02
 SCF Done:  E(RHF) =  -76.8153911660     A.U. after    6 cycles
 E2 =    -0.2514023343D+00 EUMP2 =    -0.77066793500314D+02
 Optimization completed.
    -- Stationary point found.

                         Standard orientation:
 ---------------------------------------------------------------------
 Center     Atomic      Atomic             Coordinates (Angstroms)
 Number     Number       Type             X           Y           Z
 ---------------------------------------------------------------------
      1          6           0        0.000000    0.000000    0.608839
      2          6           0        0.000000    0.000000   -0.608839
      3          1           0        0.000000    0.000000    1.674982
      4          1           0        0.000000    0.000000   -1.674982
 ---------------------------------------------------------------------

 The electronic state is 1-SG.
 Alpha  occ. eigenvalues --  -11.24436 -11.24099  -1.01506  -0.76115  -0.66953
 Alpha  occ. eigenvalues --   -0.39690  -0.39690
 Alpha virt. eigenvalues --    0.21239   0.21239   0.24638   0.29477   0.60986
 Alpha virt. eigenvalues --    0.64702   0.74971   0.74971   0.90320   0.90320
 Alpha virt. eigenvalues --    0.93878   1.04573   1.28351   1.52954   1.74259

 Mulliken charges:
               1
     1  C   -0.282491
     2  C   -0.282491
     3  H    0.282491
     4  H    0.282491
 Sum of Mulliken charges =   0.00000

 Dipole moment (field-independent basis, Debye):
    X=              0.0000    Y=              0.0000    Z=              0.0000  Tot=              0.0000
 Quadrupole moment (field-independent basis, Debye-Ang):
   XX=            -13.4841   YY=            -13.4841   ZZ=             -6.4319
   XY=              0.0000   XZ=              0.0000   YZ=              0.0000

 Normal termination of Gaussian 09 at Thu Feb 23 18:17:21 2017.
