 Gaussian 09, Revision E.01,
 Gaussian 09:  ES64L-G09RevE.01 30-Nov-2015

 ---------------------
 #n B3LYP/6-31G(d) Opt
 ---------------------

 -----
 Title
 -----
 Symbolic Z-matrix:
 Charge =  0 Multiplicity = 1

 SCF Done:  E(RB3LYP) =  -1.13107964913     A.U. after    6 cycles
 SCF Done:  E(RB3LYP) =  -1.15752211092     A.U. after    6 cycles
 SCF Done:  E(RB3LYP) =  -1.17510856615     A.U. after    7 cycles
 SCF Done:  E(RB3LYP) =  -1.17548190064     A.U. after    4 cycles
 SCF Done:  E(RB3LYP) =  -1.17548238770     A.U. after    3 cycles
 Optimization completed.
    -- Stationary point found.

                         Standard orientation:
 ---------------------------------------------------------------------
 Center     Atomic      Atomic             Coordinates (Angstroms)
 Number     Number       Type             X           Y           Z
 ---------------------------------------------------------------------
      1          1           0        0.000000    0.000000    0.371394
      2          1           0        0.000000    0.000000   -0.371394
 ---------------------------------------------------------------------

 The electronic state is 1-SGG.
 Alpha  occ. eigenvalues --   -0.43396
 Alpha virt. eigenvalues --    0.10009   0.58138   1.10720

 Mulliken charges:
               1
     1  H    0.000000
     2  H    0.000000
 Sum of Mulliken charges =   0.00000

 Dipole moment (field-independent basis, Debye):
    X=              0.0000    Y=              0.0000    Z=              0.0000  Tot=              0.0000
 Quadrupole moment (field-independent basis, Debye-Ang):
   XX=             -2.0100   YY=             -2.0100   ZZ=             -1.5856
   XY=              0.0000   XZ=              0.0000   YZ=              0.0000

 Normal termination of Gaussian 09 at Fri Feb 24 00:02:34 2017.
