 Gaussian 09, Revision E.01,
 Gaussian 09:  ES64L-G09RevE.01 30-Nov-2015

 --------------------
 #n CCSD/6-31G(d) Opt
 --------------------

 -----
 Title
 -----
 Symbolic Z-matrix:
 Charge =  0 Multiplicity = 1

 SCF Done:  E(RHF) =  -1.07568720044     A.U. after    4 cycles
 E2 =    -0.2180381305D-01 EUMP2 =    -0.10974910134899D+01
 SCF Done:  E(RHF) =  -1.10512985403     A.U. after    5 cycles
 E2 =    -0.1966054590D-01 EUMP2 =    -0.11247903999298D+01
 SCF Done:  E(RHF) =  -1.12677708605     A.U. after    5 cycles
 E2 =    -0.1736328985D-01 EUMP2 =    -0.11441403759003D+01
 SCF Done:  E(RHF) =  -1.12663411519     A.U. after    4 cycles
 E2 =    -0.1745159848D-01 EUMP2 =    -0.11440857136710D+01
 Optimization completed.
    -- Stationary point found.

                         Standard orientation:
 ---------------------------------------------------------------------
 Center     Atomic      Atomic             Coordinates (Angstroms)
 Number     Number       Type             X           Y           Z
 ---------------------------------------------------------------------
      1          1           0        0.000000    0.000000    0.373242
      2          1           0        0.000000    0.000000   -0.373242
 ---------------------------------------------------------------------

 The electronic state is 1-SGG.
 Alpha  occ. eigenvalues --   -0.59386
 Alpha virt. eigenvalues --    0.23674   0.77786   1.39592

 Mulliken charges:
               1
     1  H    0.000000
     2  H    0.000000
 Sum of Mulliken charges =   0.00000

 Dipole moment (field-independent basis, Debye):
    X=              0.0000    Y=              0.0000    Z=              0.0000  Tot=              0.0000
 Quadrupole moment (field-independent basis, Debye-Ang):
   XX=             -2.0530   YY=             -2.0530   ZZ=             -1.6223
   XY=              0.0000   XZ=              0.0000   YZ=              0.0000

 Normal termination of Gaussian 09 at Fri Feb 24 00:05:14 2017.
