 Gaussian 09, Revision A.02,
 Gaussian 09:  EM64L-G09RevA.02 11-Jun-2009

 --------------------------------------
 # opt M062X/6-311+G* geom=connectivity
 --------------------------------------

 -------------------
 Title Card Required
 -------------------
 Symbolic Z-matrix:
 Charge =  0 Multiplicity = 1

 SCF Done:  E(RM062X) =  -883.264992443     A.U. after   16 cycles
 SCF Done:  E(RM062X) =  -883.319173242     A.U. after   14 cycles
 SCF Done:  E(RM062X) =  -883.387863303     A.U. after   13 cycles
 SCF Done:  E(RM062X) =  -883.410431433     A.U. after   13 cycles
 SCF Done:  E(RM062X) =  -883.439810292     A.U. after   12 cycles
 SCF Done:  E(RM062X) =  -883.465849917     A.U. after   14 cycles
 SCF Done:  E(RM062X) =  -883.474021328     A.U. after   15 cycles
 SCF Done:  E(RM062X) =  -883.476481030     A.U. after   12 cycles
 SCF Done:  E(RM062X) =  -883.477265173     A.U. after   12 cycles
 SCF Done:  E(RM062X) =  -883.477898277     A.U. after   14 cycles
 SCF Done:  E(RM062X) =  -883.484416259     A.U. after   11 cycles
 SCF Done:  E(RM062X) =  -883.484239595     A.U. after   12 cycles
 SCF Done:  E(RM062X) =  -883.484455063     A.U. after   11 cycles
 SCF Done:  E(RM062X) =  -883.484455059     A.U. after    9 cycles
 SCF Done:  E(RM062X) =  -883.484455622     A.U. after    9 cycles
 SCF Done:  E(RM062X) =  -883.484455440     A.U. after    9 cycles
 SCF Done:  E(RM062X) =  -883.484455570     A.U. after    9 cycles
 SCF Done:  E(RM062X) =  -883.484456071     A.U. after    9 cycles
 SCF Done:  E(RM062X) =  -883.484456331     A.U. after    8 cycles
 SCF Done:  E(RM062X) =  -883.484456503     A.U. after    7 cycles
 Optimization completed.
    -- Stationary point found.

                         Standard orientation:
 ---------------------------------------------------------------------
 Center     Atomic      Atomic             Coordinates (Angstroms)
 Number     Number       Type             X           Y           Z
 ---------------------------------------------------------------------
      1          6           0        1.578955   -1.871592   -0.348439
      2          6           0        1.331605    0.307696   -0.118164
      3          6           0        2.747768   -1.372321    0.131251
      4          1           0        0.828295    1.291280   -0.118286
      5          1           0        3.677533   -1.855550    0.379771
      6          1           0        1.290114   -2.878988   -0.597201
      7          6           0       -0.695962   -0.855107   -0.925035
      8          1           0       -0.875696    0.048687   -1.508872
      9          1           0       -0.805867   -1.734855   -1.562589
     10          6           0       -1.634835   -0.879852    0.273220
     11          1           0       -1.525887   -1.821706    0.824787
     12          1           0       -1.356107   -0.054449    0.934323
     13          6           0       -3.078329   -0.670450   -0.173495
     14          1           0       -3.125046    0.275568   -0.721546
     15          1           0       -3.380494   -1.467306   -0.863654
     16          6           0       -4.032706   -0.615323    1.014698
     17          1           0       -3.767324    0.214343    1.673910
     18          1           0       -5.063391   -0.463955    0.688785
     19          1           0       -3.998984   -1.538790    1.600047
     20          6           0        3.553358    0.949230    0.754690
     21          1           0        3.846641    0.690285    1.771020
     22          1           0        4.425203    0.947198    0.102125
     23          1           0        3.096426    1.936625    0.748976
     24          7           0        0.717209   -0.808853   -0.500231
     25          7           0        2.568620   -0.010369    0.267599
     26         17           0       -0.875609    2.481911   -0.316208
 ---------------------------------------------------------------------

 The electronic state is 1-A.
 Alpha  occ. eigenvalues -- -102.50810 -14.87478 -14.86391 -10.65357 -10.63278
 Alpha  occ. eigenvalues --  -10.63158 -10.62680 -10.59801 -10.53711 -10.52440
 Alpha  occ. eigenvalues --  -10.51271  -9.65011  -7.37133  -7.37099  -7.37091
 Alpha  occ. eigenvalues --   -1.22256  -1.09593  -0.94118  -0.90631  -0.87824
 Alpha  occ. eigenvalues --   -0.83116  -0.76578  -0.75243  -0.74170  -0.71303
 Alpha  occ. eigenvalues --   -0.66775  -0.66132  -0.61346  -0.58843  -0.56917
 Alpha  occ. eigenvalues --   -0.56309  -0.55062  -0.54643  -0.53986  -0.51391
 Alpha  occ. eigenvalues --   -0.49604  -0.48889  -0.45468  -0.42868  -0.41850
 Alpha  occ. eigenvalues --   -0.39418  -0.38518  -0.38050  -0.35307  -0.25317
 Alpha  occ. eigenvalues --   -0.24993  -0.24820
 Alpha virt. eigenvalues --   -0.01624  -0.01036  -0.00224   0.00350   0.01241
 Alpha virt. eigenvalues --    0.02381   0.02705   0.03057   0.03952   0.04495
 Alpha virt. eigenvalues --    0.05402   0.05742   0.06369   0.06812   0.07399

 Mulliken atomic charges:
              1
     1  C   -0.344515
     2  C   -0.470567
     3  C   -0.142030
     4  H    0.309099
     5  H    0.277375
     6  H    0.277392
     7  C   -0.897310
     8  H    0.337052
     9  H    0.249806
    10  C   -0.272983
    11  H    0.237489
    12  H    0.309911
    13  C   -0.282375
    14  H    0.300778
    15  H    0.239072
    16  C   -1.090226
    17  H    0.280045
    18  H    0.263344
    19  H    0.244186
    20  C   -0.655882
    21  H    0.273108
    22  H    0.273671
    23  H    0.303985
    24  N    0.354528
    25  N    0.358926
    26  Cl  -0.733880
 Sum of Mulliken atomic charges =   0.00000

 Dipole moment (field-independent basis, Debye):
    X=              8.4600    Y=             -9.3998    Z=              1.0125  Tot=             12.6867
 Quadrupole moment (field-independent basis, Debye-Ang):
   XX=            -56.4707   YY=            -92.6908   ZZ=            -77.9327
   XY=              8.8816   XZ=              4.2112   YZ=              5.6091

 Normal termination of Gaussian 09 at Wed Mar  8 18:01:17 2017.
