 Gaussian 09, Revision A.02,
 Gaussian 09:  EM64L-G09RevA.02 11-Jun-2009

 --------------------
 # M062X/6-311+G* OPT
 --------------------

 -------------------
 Title Card Required
 -------------------
 Symbolic Z-matrix:
 Charge =  1 Multiplicity = 1

 SCF Done:  E(RM062X) =  -422.897797514     A.U. after   14 cycles
 SCF Done:  E(RM062X) =  -422.937382107     A.U. after   13 cycles
 SCF Done:  E(RM062X) =  -422.994478767     A.U. after   12 cycles
 SCF Done:  E(RM062X) =  -423.015862887     A.U. after   12 cycles
 SCF Done:  E(RM062X) =  -423.040119662     A.U. after   12 cycles
 SCF Done:  E(RM062X) =  -423.057939834     A.U. after   12 cycles
 SCF Done:  E(RM062X) =  -423.065274370     A.U. after   12 cycles
 SCF Done:  E(RM062X) =  -423.064623613     A.U. after   14 cycles
 SCF Done:  E(RM062X) =  -423.065904960     A.U. after   11 cycles
 SCF Done:  E(RM062X) =  -423.066200593     A.U. after   11 cycles
 SCF Done:  E(RM062X) =  -423.067395608     A.U. after   11 cycles
 SCF Done:  E(RM062X) =  -423.067404626     A.U. after   14 cycles
 SCF Done:  E(RM062X) =  -423.067404586     A.U. after   10 cycles
 SCF Done:  E(RM062X) =  -423.067422499     A.U. after    9 cycles
 SCF Done:  E(RM062X) =  -423.067430820     A.U. after    9 cycles
 SCF Done:  E(RM062X) =  -423.067442531     A.U. after   10 cycles
 SCF Done:  E(RM062X) =  -423.067447875     A.U. after   10 cycles
 SCF Done:  E(RM062X) =  -423.067451953     A.U. after    9 cycles
 SCF Done:  E(RM062X) =  -423.067452688     A.U. after    9 cycles
 SCF Done:  E(RM062X) =  -423.067453571     A.U. after    9 cycles
 Optimization completed.
    -- Stationary point found.

                         Standard orientation:
 ---------------------------------------------------------------------
 Center     Atomic      Atomic             Coordinates (Angstroms)
 Number     Number       Type             X           Y           Z
 ---------------------------------------------------------------------
      1          6           0       -0.979520    1.344637   -0.200412
      2          6           0       -1.439506   -0.801985   -0.254989
      3          6           0       -2.263861    1.181193    0.211497
      4          1           0       -1.345895   -1.868183   -0.390444
      5          1           0       -3.004830    1.898206    0.524957
      6          1           0       -0.382515    2.234273   -0.315852
      7          6           0        0.893800   -0.204709   -0.927222
      8          1           0        0.904141   -1.246090   -1.253344
      9          1           0        1.097012    0.417858   -1.800540
     10          6           0        1.905931    0.038118    0.184916
     11          1           0        1.861962    1.085551    0.502582
     12          1           0        1.639742   -0.569133    1.056541
     13          6           0        3.322939   -0.300357   -0.277401
     14          1           0        3.362891   -1.348987   -0.590352
     15          1           0        3.572579    0.296899   -1.160499
     16          6           0        4.351009   -0.050660    0.821750
     17          1           0        4.135788   -0.652779    1.707488
     18          1           0        5.355479   -0.305597    0.483330
     19          1           0        4.359007    0.999100    1.123947
     20          6           0       -3.807285   -0.796686    0.526364
     21          1           0       -4.050587   -0.557073    1.559672
     22          1           0       -4.586382   -0.431013   -0.139693
     23          1           0       -3.711075   -1.874384    0.416523
     24          7           0       -0.484410    0.092788   -0.489952
     25          7           0       -2.531069   -0.169353    0.171190
 ---------------------------------------------------------------------

 The electronic state is 1-A.
 Alpha  occ. eigenvalues --  -15.00916 -15.00495 -10.80956 -10.75747 -10.75640
 Alpha  occ. eigenvalues --  -10.74532 -10.74268 -10.67526 -10.65129 -10.62372
 Alpha  occ. eigenvalues --   -1.35900  -1.23142  -1.07098  -1.04412  -1.00448
 Alpha  occ. eigenvalues --   -0.95746  -0.89942  -0.87325  -0.85690  -0.79864
 Alpha  occ. eigenvalues --   -0.79078  -0.74480  -0.71612  -0.70934  -0.69622
 Alpha  occ. eigenvalues --   -0.69070  -0.67246  -0.66784  -0.63687  -0.62248
 Alpha  occ. eigenvalues --   -0.61689  -0.58163  -0.55655  -0.54381  -0.51908
 Alpha  occ. eigenvalues --   -0.50769  -0.50688  -0.48470
 Alpha virt. eigenvalues --   -0.14516  -0.11875  -0.11390  -0.09826  -0.09532
 Alpha virt. eigenvalues --   -0.08213  -0.07960  -0.07451  -0.07039  -0.05927
 Alpha virt. eigenvalues --   -0.05549  -0.05331  -0.04642  -0.03852  -0.03335

 Mulliken atomic charges:
              1
     1  C   -0.221182
     2  C   -0.273135
     3  C   -0.236135
     4  H    0.312363
     5  H    0.315832
     6  H    0.314833
     7  C   -0.908469
     8  H    0.283276
     9  H    0.319694
    10  C   -0.268570
    11  H    0.266427
    12  H    0.276669
    13  C   -0.406747
    14  H    0.271266
    15  H    0.271576
    16  C   -1.015847
    17  H    0.265780
    18  H    0.289801
    19  H    0.266640
    20  C   -0.682213
    21  H    0.303590
    22  H    0.306771
    23  H    0.280336
    24  N    0.374878
    25  N    0.292566
 Sum of Mulliken atomic charges =   1.00000

 Dipole moment (field-independent basis, Debye):
    X=             -5.6621    Y=             -0.6278    Z=             -0.3835  Tot=              5.7097
 Quadrupole moment (field-independent basis, Debye-Ang):
   XX=            -23.2859   YY=            -49.3759   ZZ=            -59.7132
   XY=              2.3553   XZ=             -4.8646   YZ=              0.4383

 Normal termination of Gaussian 09 at Fri Mar  3 16:09:10 2017.
