 Gaussian 09, Revision A.02,
 Gaussian 09:  EM64L-G09RevA.02 11-Jun-2009

 --------------------------------------
 # opt M062X/6-311+G* geom=connectivity
 --------------------------------------

 -------------------
 Title Card Required
 -------------------
 Symbolic Z-matrix:
 Charge =  0 Multiplicity = 1

 SCF Done:  E(RM062X) =  -883.214447999     A.U. after   16 cycles
 SCF Done:  E(RM062X) =  -883.272100126     A.U. after   14 cycles
 SCF Done:  E(RM062X) =  -883.338324471     A.U. after   15 cycles
 SCF Done:  E(RM062X) =  -883.359128959     A.U. after   15 cycles
 SCF Done:  E(RM062X) =  -883.400963624     A.U. after   13 cycles
 SCF Done:  E(RM062X) =  -883.441829606     A.U. after   14 cycles
 SCF Done:  E(RM062X) =  -883.456426425     A.U. after   13 cycles
 SCF Done:  E(RM062X) =  -883.464589008     A.U. after   13 cycles
 SCF Done:  E(RM062X) =  -883.469039676     A.U. after   13 cycles
 SCF Done:  E(RM062X) =  -883.473530736     A.U. after   15 cycles
 SCF Done:  E(RM062X) =  -883.486577401     A.U. after   12 cycles
 SCF Done:  E(RM062X) =  -883.486604735     A.U. after   12 cycles
 SCF Done:  E(RM062X) =  -883.486616061     A.U. after   10 cycles
 SCF Done:  E(RM062X) =  -883.486624467     A.U. after   10 cycles
 SCF Done:  E(RM062X) =  -883.486628833     A.U. after   10 cycles
 SCF Done:  E(RM062X) =  -883.486635244     A.U. after   11 cycles
 SCF Done:  E(RM062X) =  -883.486640119     A.U. after   11 cycles
 SCF Done:  E(RM062X) =  -883.486641421     A.U. after   10 cycles
 SCF Done:  E(RM062X) =  -883.486642007     A.U. after    9 cycles
 SCF Done:  E(RM062X) =  -883.486641940     A.U. after    8 cycles
 Optimization completed.
    -- Stationary point found.

                         Standard orientation:
 ---------------------------------------------------------------------
 Center     Atomic      Atomic             Coordinates (Angstroms)
 Number     Number       Type             X           Y           Z
 ---------------------------------------------------------------------
      1          6           0       -0.755871   -1.682173   -0.682105
      2          6           0       -1.347438   -0.226120    0.854806
      3          6           0       -2.035784   -1.315506   -0.925460
      4          1           0       -1.326891    0.422980    1.711314
      5          1           0       -2.716209   -1.601068   -1.709147
      6          1           0       -0.103994   -2.356395   -1.209866
      7          6           0        1.023988   -0.905892    0.956434
      8          1           0        0.994745   -0.175559    1.766892
      9          1           0        1.327324   -1.871415    1.369569
     10          6           0        1.971442   -0.426719   -0.137270
     11          1           0        2.068612   -1.197724   -0.910746
     12          1           0        1.529611    0.461586   -0.598114
     13          6           0        3.348184   -0.099250    0.434124
     14          1           0        3.240187    0.690540    1.184747
     15          1           0        3.760851   -0.973043    0.952740
     16          6           0        4.314345    0.361277   -0.652941
     17          1           0        3.928118    1.248528   -1.159261
     18          1           0        5.292865    0.609977   -0.237877
     19          1           0        4.459729   -0.416796   -1.407174
     20          6           0       -3.561108    0.451612    0.041998
     21          1           0       -4.377365   -0.050228   -0.473965
     22          1           0       -3.865050    0.682857    1.061194
     23          1           0       -3.263298    1.369576   -0.468690
     24          7           0       -0.352566   -1.017478    0.461336
     25          7           0       -2.407214   -0.438044    0.075294
     26         17           0       -0.551608    2.141262   -0.174444
 ---------------------------------------------------------------------

 The electronic state is 1-A.
 Alpha  occ. eigenvalues -- -102.51537 -14.84800 -14.84679 -10.65972 -10.61311
 Alpha  occ. eigenvalues --  -10.61174 -10.60421 -10.59889 -10.53869 -10.53668
 Alpha  occ. eigenvalues --  -10.52141  -9.65737  -7.37862  -7.37821  -7.37811
 Alpha  occ. eigenvalues --   -1.20481  -1.07991  -0.92900  -0.90364  -0.86717
 Alpha  occ. eigenvalues --   -0.82424  -0.76428  -0.74972  -0.73006  -0.71112
 Alpha  occ. eigenvalues --   -0.67319  -0.65093  -0.59783  -0.57358  -0.56350
 Alpha  occ. eigenvalues --   -0.55233  -0.54844  -0.53390  -0.52846  -0.49684
 Alpha  occ. eigenvalues --   -0.49402  -0.48844  -0.45631  -0.43142  -0.41739
 Alpha  occ. eigenvalues --   -0.40306  -0.39313  -0.37184  -0.34338  -0.25701
 Alpha  occ. eigenvalues --   -0.25514  -0.24959
 Alpha virt. eigenvalues --   -0.00780   0.00488   0.00586   0.02046   0.02509
 Alpha virt. eigenvalues --    0.02882   0.02999   0.03428   0.04163   0.05203
 Alpha virt. eigenvalues --    0.05497   0.06304   0.06766   0.07364   0.07406

 Mulliken atomic charges:
              1
     1  C   -0.170576
     2  C   -0.331830
     3  C   -0.313540
     4  H    0.336494
     5  H    0.275229
     6  H    0.273998
     7  C   -0.870591
     8  H    0.286423
     9  H    0.277423
    10  C   -0.203504
    11  H    0.228244
    12  H    0.351339
    13  C   -0.458043
    14  H    0.273290
    15  H    0.247282
    16  C   -1.024076
    17  H    0.280752
    18  H    0.263242
    19  H    0.250103
    20  C   -0.769164
    21  H    0.238769
    22  H    0.263926
    23  H    0.354374
    24  N    0.377630
    25  N    0.263495
    26  Cl  -0.700692
 Sum of Mulliken atomic charges =   0.00000

 Dipole moment (field-independent basis, Debye):
    X=             -2.2475    Y=             -8.3487    Z=              1.4457  Tot=              8.7659
 Quadrupole moment (field-independent basis, Debye-Ang):
   XX=            -58.0406   YY=            -91.8736   ZZ=            -72.6467
   XY=              1.9381   XZ=              1.4123   YZ=              5.1954

 Normal termination of Gaussian 09 at Wed Mar  8 15:32:22 2017.
