 Gaussian 09, Revision A.02,
 Gaussian 09:  EM64L-G09RevA.02 11-Jun-2009

 --------------------------------------
 # opt M062X/6-311+G* geom=connectivity
 --------------------------------------

 -------------------
 Title Card Required
 -------------------
 Symbolic Z-matrix:
 Charge =  0 Multiplicity = 1

 SCF Done:  E(RM062X) =  -403.391746240     A.U. after   14 cycles
 SCF Done:  E(RM062X) =  -403.414348699     A.U. after   12 cycles
 SCF Done:  E(RM062X) =  -403.436705094     A.U. after   13 cycles
 SCF Done:  E(RM062X) =  -403.448297330     A.U. after   12 cycles
 SCF Done:  E(RM062X) =  -403.458345138     A.U. after   13 cycles
 SCF Done:  E(RM062X) =  -403.460338507     A.U. after   12 cycles
 SCF Done:  E(RM062X) =  -403.461270291     A.U. after   12 cycles
 SCF Done:  E(RM062X) =  -403.461938961     A.U. after   11 cycles
 SCF Done:  E(RM062X) =  -403.464665786     A.U. after   14 cycles
 SCF Done:  E(RM062X) =  -403.466491750     A.U. after   14 cycles
 SCF Done:  E(RM062X) =  -403.501056407     A.U. after    9 cycles
 SCF Done:  E(RM062X) =  -403.501057964     A.U. after    9 cycles
 SCF Done:  E(RM062X) =  -403.501059666     A.U. after    9 cycles
 SCF Done:  E(RM062X) =  -403.501060361     A.U. after    9 cycles
 SCF Done:  E(RM062X) =  -403.501060499     A.U. after    9 cycles
 SCF Done:  E(RM062X) =  -403.501060918     A.U. after    8 cycles
 SCF Done:  E(RM062X) =  -403.501061078     A.U. after    8 cycles
 SCF Done:  E(RM062X) =  -403.501061158     A.U. after    8 cycles
 SCF Done:  E(RM062X) =  -403.501061152     A.U. after    8 cycles
 SCF Done:  E(RM062X) =  -403.501060961     A.U. after    8 cycles
 Optimization completed.
    -- Stationary point found.

                         Standard orientation:
 ---------------------------------------------------------------------
 Center     Atomic      Atomic             Coordinates (Angstroms)
 Number     Number       Type             X           Y           Z
 ---------------------------------------------------------------------
      1          6           0       -4.046347   -0.506030    0.090362
      2          1           0       -4.486430    0.481661    0.251339
      3          1           0       -3.991226   -1.005701    1.061006
      4          1           0       -4.731808   -1.077051   -0.538843
      5          6           0       -2.663884   -0.393777   -0.545339
      6          1           0       -2.259259   -1.394807   -0.729243
      7          1           0       -2.746786    0.088614   -1.525626
      8          6           0       -1.683890    0.390747    0.323766
      9          1           0       -1.590051   -0.096024    1.302208
     10          1           0       -2.083381    1.395542    0.511944
     11          6           0       -0.302587    0.502835   -0.311619
     12          1           0       -0.373880    0.997800   -1.284806
     13          1           0        0.111392   -0.493881   -0.487529
     14          7           0        0.687544    1.237684    0.491024
     15          1           0        2.176445    0.928563   -0.217846
     16          1           0        0.368200    2.182632    0.680371
     17          1           0        0.808404    0.771845    1.387228
     18          6           0        3.147855   -0.709390   -0.134710
     19          1           0        4.056777   -1.191844   -0.519649
     20          8           0        2.382229   -1.259164    0.617975
     21          8           0        3.020511    0.514484   -0.600785
 ---------------------------------------------------------------------

 The electronic state is 1-A.
 Alpha  occ. eigenvalues --  -19.64181 -19.60617 -14.75999 -10.66225 -10.57170
 Alpha  occ. eigenvalues --  -10.54095 -10.53945 -10.52884  -1.22045  -1.12702
 Alpha  occ. eigenvalues --   -1.01946  -0.89984  -0.81423  -0.72928  -0.72227
 Alpha  occ. eigenvalues --   -0.67629  -0.60552  -0.58369  -0.56616  -0.54376
 Alpha  occ. eigenvalues --   -0.52857  -0.51569  -0.51235  -0.47867  -0.47023
 Alpha  occ. eigenvalues --   -0.44857  -0.42509  -0.42123  -0.40481  -0.39623
 Alpha  occ. eigenvalues --   -0.37912  -0.35463  -0.33552
 Alpha virt. eigenvalues --    0.00894   0.02047   0.02683   0.03419   0.04157
 Alpha virt. eigenvalues --    0.04649   0.05035   0.05777   0.06372   0.06534
 Alpha virt. eigenvalues --    0.07151   0.07854   0.08355   0.09913   0.10385

 Mulliken atomic charges:
              1
     1  C   -1.000740
     2  H    0.253289
     3  H    0.256367
     4  H    0.264020
     5  C   -0.271000
     6  H    0.259412
     7  H    0.252241
     8  C   -0.495100
     9  H    0.250677
    10  H    0.239774
    11  C   -0.497847
    12  H    0.259894
    13  H    0.282531
    14  N   -0.863301
    15  H    0.570211
    16  H    0.360041
    17  H    0.400338
    18  C   -0.008113
    19  H    0.206037
    20  O   -0.332365
    21  O   -0.386368
 Sum of Mulliken atomic charges =   0.00000

 Dipole moment (field-independent basis, Debye):
    X=             -2.3299    Y=              1.6925    Z=              0.0727  Tot=              2.8807
 Quadrupole moment (field-independent basis, Debye-Ang):
   XX=            -54.5409   YY=            -51.5198   ZZ=            -51.9015
   XY=             -1.0350   XZ=              0.2289   YZ=              4.1157

 1\1\GINC-N0293\FOpt\RM062X\6-311+G(d)\C5H13N1O2\WAB665\08-Mar-2017\0\\
 # opt M062X/6-311+G* geom=connectivity\\Title Card Required\\0,1\C,-2.
 3032296934,-1.1146338395,0.1267655114\H,-1.9377595413,-2.1344129882,0.
 2737434513\H,-1.9957970861,-0.7938859647,-0.8719663835\H,-3.3943270529
 ,-1.1465680613,0.1443009974\C,-1.7528872996,-0.1751296684,1.1955850651
 \H,-2.1604274089,0.8308343303,1.0487857306\H,-2.0923390415,-0.50248477
 02,2.1845985847\C,-0.2277475581,-0.1047052668,1.1814265294\H,0.1149557
 77,0.2335732845,0.1959202548\H,0.1874349647,-1.1100366159,1.3282286195

 Normal termination of Gaussian 09 at Wed Mar  8 17:49:41 2017.
