 Gaussian 09, Revision E.01,
 Gaussian 09:  ES64L-G09RevE.01 30-Nov-2015

 -------------------
 #n B3LYP/STO-3G Opt
 -------------------

 -------------------
 Ethyne B3LYP STO-3G
 -------------------
 Symbolic Z-matrix:
 Charge =  0 Multiplicity = 1

 SCF Done:  E(RB3LYP) =  -76.3551900966     A.U. after    6 cycles
 SCF Done:  E(RB3LYP) =  -76.3560527508     A.U. after    8 cycles
 SCF Done:  E(RB3LYP) =  -76.3561204645     A.U. after    5 cycles
 SCF Done:  E(RB3LYP) =  -76.3561205616     A.U. after    5 cycles
 Optimization completed.
    -- Stationary point found.

                         Standard orientation:
 ---------------------------------------------------------------------
 Center     Atomic      Atomic             Coordinates (Angstroms)
 Number     Number       Type             X           Y           Z
 ---------------------------------------------------------------------
      1          6           0        0.000000    0.000000   -0.600273
      2          6           0        0.000000    0.000000    0.600273
      3          1           0        0.000000    0.000000   -1.681111
      4          1           0        0.000000    0.000000    1.681111
 ---------------------------------------------------------------------

 The electronic state is 1-SGG.
 Alpha  occ. eigenvalues --   -9.97831  -9.97688  -0.69525  -0.52245  -0.44344
 Alpha  occ. eigenvalues --   -0.23080  -0.23080
 Alpha virt. eigenvalues --    0.17585   0.17585   0.30622   0.44508   1.10678

 Mulliken charges:
               1
     1  C   -0.119582
     2  C   -0.119582
     3  H    0.119582
     4  H    0.119582
 Sum of Mulliken charges =   0.00000

 Dipole moment (field-independent basis, Debye):
    X=              0.0000    Y=              0.0000    Z=              0.0000  Tot=              0.0000
 Quadrupole moment (field-independent basis, Debye-Ang):
   XX=            -11.7690   YY=            -11.7690   ZZ=             -7.2417
   XY=              0.0000   XZ=              0.0000   YZ=              0.0000

 Normal termination of Gaussian 09 at Tue Feb 21 19:05:54 2017.
