 Gaussian 09, Revision E.01,
 Gaussian 09:  ES64L-G09RevE.01 30-Nov-2015

 --------------------
 #n M062X/LANL2DZ Opt
 --------------------

 --------------------
 Ethene M062X LANL2DZ
 --------------------
 Symbolic Z-matrix:
 Charge =  0 Multiplicity = 1

 SCF Done:  E(RM062X) =  -78.5301185470     A.U. after   11 cycles
 SCF Done:  E(RM062X) =  -78.5306232956     A.U. after   10 cycles
 SCF Done:  E(RM062X) =  -78.5306357553     A.U. after    6 cycles
 Optimization completed.
    -- Stationary point found.

                         Standard orientation:
 ---------------------------------------------------------------------
 Center     Atomic      Atomic             Coordinates (Angstroms)
 Number     Number       Type             X           Y           Z
 ---------------------------------------------------------------------
      1          6           0       -0.671557    0.000000    0.000000
      2          6           0        0.671557    0.000000    0.000000
      3          1           0       -1.241653    0.924661    0.000000
      4          1           0       -1.241653   -0.924661    0.000001
      5          1           0        1.241653    0.924661    0.000001
      6          1           0        1.241653   -0.924661    0.000001
 ---------------------------------------------------------------------

 The electronic state is 1-A.
 Alpha  occ. eigenvalues --  -10.55528 -10.55427  -0.85664  -0.66051  -0.53996
 Alpha  occ. eigenvalues --   -0.48389  -0.41669  -0.32959
 Alpha virt. eigenvalues --    0.04318   0.18074   0.19582   0.25370   0.30108
 Alpha virt. eigenvalues --    0.30825   0.33314   0.36418   0.36923   0.45942
 Alpha virt. eigenvalues --    0.55849   0.64473   0.68178   1.04942   1.12058

 Mulliken charges:
               1
     1  C   -0.415442
     2  C   -0.415442
     3  H    0.207721
     4  H    0.207721
     5  H    0.207721
     6  H    0.207721
 Sum of Mulliken charges =   0.00000

 Dipole moment (field-independent basis, Debye):
    X=              0.0000    Y=              0.0000    Z=              0.0000  Tot=              0.0000
 Quadrupole moment (field-independent basis, Debye-Ang):
   XX=            -11.8479   YY=            -11.9857   ZZ=            -15.8218
   XY=              0.0000   XZ=              0.0000   YZ=              0.0000

 Normal termination of Gaussian 09 at Tue Feb 21 18:30:36 2017.
