 Gaussian 09, Revision E.01,
 Gaussian 09:  ES64L-G09RevE.01 30-Nov-2015

 ---------------------
 #n M062X/6-31G(d) Opt
 ---------------------

 -------------------
 Ethene M062X 6-31Gd
 -------------------
 Symbolic Z-matrix:
 Charge =  0 Multiplicity = 1

 SCF Done:  E(RM062X) =  -78.5367450197     A.U. after   11 cycles
 SCF Done:  E(RM062X) =  -78.5368300580     A.U. after    6 cycles
 SCF Done:  E(RM062X) =  -78.5368353280     A.U. after    6 cycles
 Optimization completed.
    -- Stationary point found.

                         Standard orientation:
 ---------------------------------------------------------------------
 Center     Atomic      Atomic             Coordinates (Angstroms)
 Number     Number       Type             X           Y           Z
 ---------------------------------------------------------------------
      1          6           0       -0.663720    0.000000    0.000000
      2          6           0        0.663720    0.000000    0.000000
      3          1           0       -1.234325    0.923895    0.000001
      4          1           0       -1.234326   -0.923895    0.000001
      5          1           0        1.234326    0.923895    0.000001
      6          1           0        1.234325   -0.923895    0.000001
 ---------------------------------------------------------------------

 The electronic state is 1-A.
 Alpha  occ. eigenvalues --  -10.54219 -10.54104  -0.85169  -0.65660  -0.53532
 Alpha  occ. eigenvalues --   -0.47792  -0.41216  -0.32523
 Alpha virt. eigenvalues --    0.06341   0.16994   0.18954   0.20951   0.29688
 Alpha virt. eigenvalues --    0.37575   0.52639   0.60474   0.61565   0.69949
 Alpha virt. eigenvalues --    0.69960   0.76257   0.91276   0.95008   1.00569

 Mulliken charges:
               1
     1  C   -0.325202
     2  C   -0.325202
     3  H    0.162601
     4  H    0.162601
     5  H    0.162601
     6  H    0.162601
 Sum of Mulliken charges =   0.00000

 Dipole moment (field-independent basis, Debye):
    X=              0.0000    Y=              0.0000    Z=              0.0000  Tot=              0.0000
 Quadrupole moment (field-independent basis, Debye-Ang):
   XX=            -11.9544   YY=            -12.0902   ZZ=            -15.1585
   XY=              0.0000   XZ=              0.0000   YZ=              0.0000

 Normal termination of Gaussian 09 at Tue Feb 21 18:25:59 2017.
