 Gaussian 09, Revision E.01,
 Gaussian 09:  ES64L-G09RevE.01 30-Nov-2015

 ------------------
 #n M062X/3-21G Opt
 ------------------

 ------------------
 Ethene M062X 3-21G
 ------------------
 Symbolic Z-matrix:
 Charge =  0 Multiplicity = 1

 SCF Done:  E(RM062X) =  -78.1094974960     A.U. after   12 cycles
 SCF Done:  E(RM062X) =  -78.1100597166     A.U. after   11 cycles
 SCF Done:  E(RM062X) =  -78.1101131631     A.U. after    6 cycles
 Optimization completed.
    -- Stationary point found.

                         Standard orientation:
 ---------------------------------------------------------------------
 Center     Atomic      Atomic             Coordinates (Angstroms)
 Number     Number       Type             X           Y           Z
 ---------------------------------------------------------------------
      1          6           0       -0.000001   -0.663754    0.000000
      2          6           0       -0.000001    0.663754    0.000000
      3          1           0        0.000004   -1.236220   -0.921347
      4          1           0        0.000004   -1.236220    0.921347
      5          1           0        0.000004    1.236220   -0.921347
      6          1           0        0.000004    1.236220    0.921347
 ---------------------------------------------------------------------

 The electronic state is 1-A'.
 Alpha  occ. eigenvalues --  -10.48494 -10.48421  -0.85588  -0.65521  -0.53888
 Alpha  occ. eigenvalues --   -0.48452  -0.41117  -0.32803
 Alpha virt. eigenvalues --    0.06949   0.19414   0.20534   0.23249   0.33049
 Alpha virt. eigenvalues --    0.41354   0.71614   0.75765   0.79131   0.86583
 Alpha virt. eigenvalues --    0.89474   0.93221   1.09555   1.13817   1.16850

 Mulliken charges:
               1
     1  C   -0.400141
     2  C   -0.400141
     3  H    0.200071
     4  H    0.200071
     5  H    0.200071
     6  H    0.200071
 Sum of Mulliken charges =   0.00000

 Dipole moment (field-independent basis, Debye):
    X=              0.0000    Y=              0.0000    Z=              0.0000  Tot=              0.0000
 Quadrupole moment (field-independent basis, Debye-Ang):
   XX=            -15.4162   YY=            -11.9553   ZZ=            -12.1659
   XY=              0.0000   XZ=              0.0000   YZ=              0.0000

 Normal termination of Gaussian 09 at Tue Feb 21 18:25:58 2017.
