 Gaussian 09, Revision E.01,
 Gaussian 09:  ES64L-G09RevE.01 30-Nov-2015

 ------------------
 #n CCSD/STO-3G Opt
 ------------------

 ------------------
 Ethyne CCSD STO-3G
 ------------------
 Symbolic Z-matrix:
 Charge =  0 Multiplicity = 1

 SCF Done:  E(RHF) =  -75.8523559165     A.U. after    7 cycles
 E2 =    -0.1503292066D+00 EUMP2 =    -0.76002685123115D+02
 SCF Done:  E(RHF) =  -75.8492860386     A.U. after    6 cycles
 E2 =    -0.1542064442D+00 EUMP2 =    -0.76003492482780D+02
 SCF Done:  E(RHF) =  -75.8500832349     A.U. after    5 cycles
 E2 =    -0.1536526778D+00 EUMP2 =    -0.76003735912727D+02
 Optimization completed.
    -- Stationary point found.

                         Standard orientation:
 ---------------------------------------------------------------------
 Center     Atomic      Atomic             Coordinates (Angstroms)
 Number     Number       Type             X           Y           Z
 ---------------------------------------------------------------------
      1          6           0        0.000000    0.000000   -0.606317
      2          6           0        0.000000    0.000000    0.606317
      3          1           0        0.000000    0.000000   -1.694149
      4          1           0        0.000000    0.000000    1.694149
 ---------------------------------------------------------------------

 The electronic state is 1-SGG.
 Alpha  occ. eigenvalues --  -10.99750 -10.99479  -0.94630  -0.69602  -0.59722
 Alpha  occ. eigenvalues --   -0.34277  -0.34277
 Alpha virt. eigenvalues --    0.39429   0.39429   0.53040   0.70312   1.44171

 Mulliken charges:
               1
     1  C   -0.108058
     2  C   -0.108058
     3  H    0.108058
     4  H    0.108058
 Sum of Mulliken charges =   0.00000

 Dipole moment (field-independent basis, Debye):
    X=              0.0000    Y=              0.0000    Z=              0.0000  Tot=              0.0000
 Quadrupole moment (field-independent basis, Debye-Ang):
   XX=            -11.7715   YY=            -11.7715   ZZ=             -7.3989
   XY=              0.0000   XZ=              0.0000   YZ=              0.0000

 Normal termination of Gaussian 09 at Tue Feb 21 19:10:40 2017.
