 Gaussian 09, Revision E.01,
 Gaussian 09:  ES64L-G09RevE.01 30-Nov-2015

 --------------------
 #n CCSD/6-31G(d) Opt
 --------------------

 ------------------
 Ethyne CCSD 6-31Gd
 ------------------
 Symbolic Z-matrix:
 Charge =  0 Multiplicity = 1

 SCF Done:  E(RHF) =  -76.8169249262     A.U. after    9 cycles
 E2 =    -0.2494911297D+00 EUMP2 =    -0.77066416055846D+02
 SCF Done:  E(RHF) =  -76.8159924747     A.U. after    7 cycles
 E2 =    -0.2507211304D+00 EUMP2 =    -0.77066713605119D+02
 SCF Done:  E(RHF) =  -76.8160883433     A.U. after    6 cycles
 E2 =    -0.2506242555D+00 EUMP2 =    -0.77066712598734D+02
 Optimization completed.
    -- Stationary point found.

                         Standard orientation:
 ---------------------------------------------------------------------
 Center     Atomic      Atomic             Coordinates (Angstroms)
 Number     Number       Type             X           Y           Z
 ---------------------------------------------------------------------
      1          6           0        0.000000    0.000000   -0.605757
      2          6           0        0.000000    0.000000    0.605757
      3          1           0        0.000000    0.000000   -1.674453
      4          1           0        0.000000    0.000000    1.674453
 ---------------------------------------------------------------------

 The electronic state is 1-SGG.
 Alpha  occ. eigenvalues --  -11.24283 -11.23933  -1.01669  -0.75919  -0.66880
 Alpha  occ. eigenvalues --   -0.39828  -0.39828
 Alpha virt. eigenvalues --    0.21440   0.21440   0.24647   0.29431   0.61267
 Alpha virt. eigenvalues --    0.64649   0.74841   0.74841   0.90493   0.90493
 Alpha virt. eigenvalues --    0.93896   1.04438   1.28377   1.53886   1.74235

 Mulliken charges:
               1
     1  C   -0.282412
     2  C   -0.282412
     3  H    0.282412
     4  H    0.282412
 Sum of Mulliken charges =   0.00000

 Dipole moment (field-independent basis, Debye):
    X=              0.0000    Y=              0.0000    Z=              0.0000  Tot=              0.0000
 Quadrupole moment (field-independent basis, Debye-Ang):
   XX=            -13.4631   YY=            -13.4631   ZZ=             -6.4423
   XY=              0.0000   XZ=              0.0000   YZ=              0.0000

 Normal termination of Gaussian 09 at Tue Feb 21 19:13:03 2017.
