 Gaussian 09, Revision A.02,
 Gaussian 09:  EM64L-G09RevA.02 11-Jun-2009

 --------------------------------------
 # opt M062X/6-311+G* geom=connectivity
 --------------------------------------

 -------------------
 Title Card Required
 -------------------
 Symbolic Z-matrix:
 Charge =  0 Multiplicity = 2

 SCF Done:  E(UM062X) =  -214.229619620     A.U. after   19 cycles
 SCF Done:  E(UM062X) =  -214.232012242     A.U. after   21 cycles
 SCF Done:  E(UM062X) =  -214.232106708     A.U. after   22 cycles
 SCF Done:  E(UM062X) =  -214.232110104     A.U. after   22 cycles
 Optimization completed.
    -- Stationary point found.

                         Standard orientation:
 ---------------------------------------------------------------------
 Center     Atomic      Atomic             Coordinates (Angstroms)
 Number     Number       Type             X           Y           Z
 ---------------------------------------------------------------------
      1          6           0       -2.587450   -0.310076   -0.000020
      2          1           0       -2.634264   -0.953164    0.882308
      3          1           0       -2.634194   -0.953207   -0.882327
      4          1           0       -3.477406    0.321530   -0.000088
      5          6           0       -1.311320    0.525765    0.000013
      6          1           0       -1.298584    1.181276   -0.877220
      7          1           0       -1.298630    1.181326    0.877224
      8          6           0       -0.054608   -0.345616    0.000041
      9          1           0       -0.053264   -1.000209   -0.877609
     10          1           0       -0.053264   -1.000158    0.877734
     11          6           0        1.193279    0.524939   -0.000006
     12          1           0        1.238671    1.161369    0.885211
     13          1           0        1.238649    1.161331   -0.885251
     14          7           0        2.455414   -0.285970   -0.000014
     15          1           0        3.299565    0.323737   -0.000056
     16          1           0        2.522730   -0.896035    0.840228
     17          1           0        2.522685   -0.896079   -0.840224
 ---------------------------------------------------------------------

 The electronic state is 2-A.
 Alpha  occ. eigenvalues --  -14.85786 -10.61011 -10.56049 -10.55235 -10.53692
 Alpha  occ. eigenvalues --   -1.10848  -0.92313  -0.84422  -0.75193  -0.69611
 Alpha  occ. eigenvalues --   -0.65684  -0.63599  -0.57407  -0.56498  -0.51255
 Alpha  occ. eigenvalues --   -0.50395  -0.47276  -0.44394  -0.42369  -0.41725
 Alpha  occ. eigenvalues --   -0.40996  -0.10921
 Alpha virt. eigenvalues --    0.01269   0.01535   0.02018   0.03626   0.04475
 Alpha virt. eigenvalues --    0.05145   0.05573   0.07039   0.07071   0.08156
 Alpha virt. eigenvalues --    0.09620   0.10121   0.12210   0.13275   0.13497

  Beta  occ. eigenvalues --  -14.85322 -10.60973 -10.56027 -10.55224 -10.53693
  Beta  occ. eigenvalues --   -1.10055  -0.92167  -0.84238  -0.75019  -0.69524
  Beta  occ. eigenvalues --   -0.65428  -0.63313  -0.57082  -0.56442  -0.51201
  Beta  occ. eigenvalues --   -0.50342  -0.47180  -0.44385  -0.42333  -0.41649
  Beta  occ. eigenvalues --   -0.40996
  Beta virt. eigenvalues --   -0.02923   0.00858   0.01198   0.01459   0.03454
  Beta virt. eigenvalues --    0.04418   0.05036   0.05129   0.06796   0.07584
  Beta virt. eigenvalues --    0.08570   0.09524   0.09696   0.12386   0.12408

 Mulliken atomic charges:
              1
     1  C   -1.092328
     2  H    0.259224
     3  H    0.259223
     4  H    0.267233
     5  C   -0.635650
     6  H    0.257875
     7  H    0.257875
     8  C   -0.100960
     9  H    0.272871
    10  H    0.272872
    11  C   -2.032649
    12  H    0.306635
    13  H    0.306635
    14  N    0.126285
    15  H    0.418706
    16  H    0.428077
    17  H    0.428077
 Sum of Mulliken atomic charges =   0.00000

 Dipole moment (field-independent basis, Debye):
    X=             -2.8964    Y=              0.8321    Z=              0.0000  Tot=              3.0135
 Quadrupole moment (field-independent basis, Debye-Ang):
   XX=            -49.8709   YY=            -41.9002   ZZ=            -42.9718
   XY=              0.8006   XZ=              0.0001   YZ=              0.0000

 Normal termination of Gaussian 09 at Wed Mar  8 15:22:31 2017.
