 Gaussian 09, Revision A.02,
 Gaussian 09:  EM64L-G09RevA.02 11-Jun-2009

 --------------------------------------
 # opt M062X/6-311+G* geom=connectivity
 --------------------------------------

 -------------------
 Title Card Required
 -------------------
 Symbolic Z-matrix:
 Charge =  0 Multiplicity = 1

 SCF Done:  E(RM062X) =  -402.214301643     A.U. after   17 cycles
 SCF Done:  E(RM062X) =  -402.520118846     A.U. after   15 cycles
 SCF Done:  E(RM062X) =  -402.841271384     A.U. after   19 cycles
 SCF Done:  E(RM062X) =  -403.104862629     A.U. after   18 cycles
 SCF Done:  E(RM062X) =  -403.192198569     A.U. after   16 cycles
 SCF Done:  E(RM062X) =  -403.270608967     A.U. after   14 cycles
 SCF Done:  E(RM062X) =  -403.390956883     A.U. after   15 cycles
 SCF Done:  E(RM062X) =  -403.425692037     A.U. after   15 cycles
 SCF Done:  E(RM062X) =  -403.456372422     A.U. after   14 cycles
 SCF Done:  E(RM062X) =  -403.456201823     A.U. after   14 cycles
 SCF Done:  E(RM062X) =  -403.491186349     A.U. after   11 cycles
 SCF Done:  E(RM062X) =  -403.491198431     A.U. after   10 cycles
 SCF Done:  E(RM062X) =  -403.491201291     A.U. after   10 cycles
 SCF Done:  E(RM062X) =  -403.491202142     A.U. after   10 cycles
 SCF Done:  E(RM062X) =  -403.491202290     A.U. after   10 cycles
 SCF Done:  E(RM062X) =  -403.491202437     A.U. after    9 cycles
 SCF Done:  E(RM062X) =  -403.491202569     A.U. after    9 cycles
 SCF Done:  E(RM062X) =  -403.491202864     A.U. after    9 cycles
 SCF Done:  E(RM062X) =  -403.491203162     A.U. after    9 cycles
 SCF Done:  E(RM062X) =  -403.491203300     A.U. after    9 cycles
 Optimization completed.
    -- Stationary point found.

                         Standard orientation:
 ---------------------------------------------------------------------
 Center     Atomic      Atomic             Coordinates (Angstroms)
 Number     Number       Type             X           Y           Z
 ---------------------------------------------------------------------
      1          6           0       -4.350373   -0.514303    0.031609
      2          1           0       -4.704514    0.316385   -0.584268
      3          1           0       -4.553669   -0.262293    1.075646
      4          1           0       -4.946973   -1.392846   -0.220446
      5          6           0       -2.862335   -0.765913   -0.192353
      6          1           0       -2.536091   -1.616746    0.415525
      7          1           0       -2.688604   -1.050664   -1.235617
      8          6           0       -2.008714    0.454438    0.145371
      9          1           0       -2.176777    0.742840    1.190577
     10          1           0       -2.329105    1.306897   -0.466542
     11          6           0       -0.521037    0.207707   -0.077614
     12          1           0       -0.335713   -0.080755   -1.116418
     13          1           0       -0.182566   -0.631207    0.538147
     14          7           0        0.350815    1.356620    0.220261
     15          1           0        1.948839    0.881526   -0.294266
     16          1           0        0.066920    2.161156   -0.332269
     17          1           0        0.251073    1.633089    1.192701
     18          6           0        3.240371   -0.409227    0.267782
     19          1           0        2.609035   -0.475200    1.175455
     20          8           0        2.791654    0.462845   -0.621920
     21          8           0        4.225218   -1.070936    0.130817
 ---------------------------------------------------------------------

 The electronic state is 1-A.
 Alpha  occ. eigenvalues --  -19.64094 -19.59786 -14.77701 -10.65775 -10.58969
 Alpha  occ. eigenvalues --  -10.55506 -10.55069 -10.53801  -1.21330  -1.13012
 Alpha  occ. eigenvalues --   -1.03580  -0.91231  -0.82737  -0.73687  -0.70008
 Alpha  occ. eigenvalues --   -0.68882  -0.64554  -0.61926  -0.55607  -0.54427
 Alpha  occ. eigenvalues --   -0.52583  -0.52276  -0.50913  -0.49175  -0.47327
 Alpha  occ. eigenvalues --   -0.45875  -0.43550  -0.43490  -0.41675  -0.40814
 Alpha  occ. eigenvalues --   -0.37454  -0.35728  -0.33862
 Alpha virt. eigenvalues --   -0.00631   0.01246   0.01666   0.02154   0.03782
 Alpha virt. eigenvalues --    0.04505   0.04906   0.05445   0.05558   0.06152
 Alpha virt. eigenvalues --    0.07365   0.07599   0.08012   0.09630   0.09905

 Mulliken atomic charges:
              1
     1  C   -1.000731
     2  H    0.255467
     3  H    0.255295
     4  H    0.267586
     5  C   -0.267764
     6  H    0.256352
     7  H    0.257652
     8  C   -0.584888
     9  H    0.245312
    10  H    0.246742
    11  C   -0.406765
    12  H    0.278593
    13  H    0.265550
    14  N   -0.890494
    15  H    0.541258
    16  H    0.373458
    17  H    0.370631
    18  C    0.011154
    19  H    0.175800
    20  O   -0.341773
    21  O   -0.308438
 Sum of Mulliken atomic charges =   0.00000

 Dipole moment (field-independent basis, Debye):
    X=             -6.9719    Y=              2.5037    Z=              1.7666  Tot=              7.6155
 Quadrupole moment (field-independent basis, Debye-Ang):
   XX=            -80.2540   YY=            -50.2129   ZZ=            -50.4352
   XY=              6.3141   XZ=              4.9826   YZ=              0.8037

 1\1\GINC-N0293\FOpt\RM062X\6-311+G(d)\C5H13N1O2\WAB665\08-Mar-2017\0\\
 # opt M062X/6-311+G* geom=connectivity\\Title Card Required\\0,1\C,0.4
 421506376,0.2628883565,2.2295829915\H,0.5978860058,-0.6230631996,1.608
 6164968\H,0.431023517,1.132908645,1.5679245916\H,-0.5459486414,0.17956
 82162,2.6856710373\C,1.5362757468,0.3903562868,3.2852187842\H,1.346020
 8153,1.2697959114,3.9099252788\H,1.5046577726,-0.4745210807,3.95652466
 95\C,2.9293085454,0.4988656326,2.6690468753\H,2.9677004265,1.365494620
 8,1.9972169851\H,3.125264328,-0.3838050545,2.0475415537\C,4.025857927,

 Normal termination of Gaussian 09 at Wed Mar  8 18:02:02 2017.
