 Gaussian 09, Revision E.01,
 Gaussian 09:  ES64L-G09RevE.01 30-Nov-2015

 -----------------------
 #n M062X/6-31G(d,p) Opt
 -----------------------

 --------------------
 Ethane M062X 6-31Gdp
 --------------------
 Symbolic Z-matrix:
 Charge =  0 Multiplicity = 1

 SCF Done:  E(RM062X) =  -79.7781877672     A.U. after   11 cycles
 SCF Done:  E(RM062X) =  -79.7783709076     A.U. after    7 cycles
 SCF Done:  E(RM062X) =  -79.7783908467     A.U. after    7 cycles
 Optimization completed.
    -- Stationary point found.

                         Standard orientation:
 ---------------------------------------------------------------------
 Center     Atomic      Atomic             Coordinates (Angstroms)
 Number     Number       Type             X           Y           Z
 ---------------------------------------------------------------------
      1          6           0       -0.761634    0.039385   -0.000060
      2          6           0        0.761634   -0.039385    0.000060
      3          1           0       -1.140352    0.393013    0.962476
      4          1           0       -1.209119   -0.939264   -0.192338
      5          1           0       -1.123088    0.726009   -0.770050
      6          1           0        1.123088   -0.726009    0.770050
      7          1           0        1.209119    0.939264    0.192338
      8          1           0        1.140352   -0.393013   -0.962476
 ---------------------------------------------------------------------

 The electronic state is 1-AG.
 Alpha  occ. eigenvalues --  -10.52994 -10.52958  -0.84523  -0.69674  -0.49842
 Alpha  occ. eigenvalues --   -0.49833  -0.42343  -0.39902  -0.39893
 Alpha virt. eigenvalues --    0.15095   0.20659   0.21265   0.21266   0.23658
 Alpha virt. eigenvalues --    0.23661   0.28852   0.55648   0.58568   0.58573
 Alpha virt. eigenvalues --    0.66912   0.66921   0.73232   0.93330   0.93333

 Mulliken charges:
               1
     1  C   -0.366616
     2  C   -0.366616
     3  H    0.122202
     4  H    0.122222
     5  H    0.122192
     6  H    0.122192
     7  H    0.122222
     8  H    0.122202
 Sum of Mulliken charges =   0.00000

 Dipole moment (field-independent basis, Debye):
    X=              0.0000    Y=              0.0000    Z=              0.0000  Tot=              0.0000
 Quadrupole moment (field-independent basis, Debye-Ang):
   XX=            -15.2357   YY=            -14.7453   ZZ=            -14.7466
   XY=              0.0253   XZ=             -0.0005   YZ=             -0.0003

 Normal termination of Gaussian 09 at Tue Feb 21 17:23:02 2017.
