 Gaussian 09, Revision E.01,
 Gaussian 09:  ES64L-G09RevE.01 30-Nov-2015

 --------------------
 #n M062X/LANL2DZ Opt
 --------------------

 --------------------
 Ethane M062X LANL2DZ
 --------------------
 Symbolic Z-matrix:
 Charge =  0 Multiplicity = 1

 SCF Done:  E(RM062X) =  -79.7643486771     A.U. after   11 cycles
 SCF Done:  E(RM062X) =  -79.7644896918     A.U. after   10 cycles
 SCF Done:  E(RM062X) =  -79.7645026032     A.U. after    6 cycles
 Optimization completed.
    -- Stationary point found.

                         Standard orientation:
 ---------------------------------------------------------------------
 Center     Atomic      Atomic             Coordinates (Angstroms)
 Number     Number       Type             X           Y           Z
 ---------------------------------------------------------------------
      1          6           0       -0.768559    0.039771   -0.000063
      2          6           0        0.768559   -0.039771    0.000063
      3          1           0       -1.143950    0.394260    0.965473
      4          1           0       -1.212946   -0.942154   -0.192985
      5          1           0       -1.126703    0.728232   -0.772447
      6          1           0        1.126703   -0.728232    0.772447
      7          1           0        1.212946    0.942154    0.192985
      8          1           0        1.143950   -0.394260   -0.965473
 ---------------------------------------------------------------------

 The electronic state is 1-AG.
 Alpha  occ. eigenvalues --  -10.53094 -10.53062  -0.84131  -0.69651  -0.49773
 Alpha  occ. eigenvalues --   -0.49766  -0.42053  -0.39917  -0.39909
 Alpha virt. eigenvalues --    0.16970   0.18174   0.23398   0.23402   0.26428
 Alpha virt. eigenvalues --    0.26432   0.29000   0.33884   0.34065   0.34069
 Alpha virt. eigenvalues --    0.38636   0.38642   0.55164   0.97153   1.10335

 Mulliken charges:
               1
     1  C   -0.595099
     2  C   -0.595099
     3  H    0.198365
     4  H    0.198376
     5  H    0.198358
     6  H    0.198358
     7  H    0.198376
     8  H    0.198365
 Sum of Mulliken charges =   0.00000

 Dipole moment (field-independent basis, Debye):
    X=              0.0000    Y=              0.0000    Z=              0.0000  Tot=              0.0000
 Quadrupole moment (field-independent basis, Debye-Ang):
   XX=            -15.1921   YY=            -14.6670   ZZ=            -14.6682
   XY=              0.0267   XZ=             -0.0002   YZ=             -0.0001

 Normal termination of Gaussian 09 at Tue Feb 21 17:20:00 2017.
