 Gaussian 09, Revision E.01,
 Gaussian 09:  ES64L-G09RevE.01 30-Nov-2015

 -------------------
 #n M062X/STO-3G Opt
 -------------------

 -------------------
 Ethane M062X STO-3G
 -------------------
 Symbolic Z-matrix:
 Charge =  0 Multiplicity = 1

 SCF Done:  E(RM062X) =  -78.8666202106     A.U. after   11 cycles
 SCF Done:  E(RM062X) =  -78.8667023367     A.U. after   10 cycles
 SCF Done:  E(RM062X) =  -78.8667121345     A.U. after    5 cycles
 Optimization completed.
    -- Stationary point found.

                         Standard orientation:
 ---------------------------------------------------------------------
 Center     Atomic      Atomic             Coordinates (Angstroms)
 Number     Number       Type             X           Y           Z
 ---------------------------------------------------------------------
      1          6           0       -0.769488    0.039837   -0.000055
      2          6           0        0.769488   -0.039837    0.000055
      3          1           0       -1.138376    0.394940    0.968674
      4          1           0       -1.207702   -0.945598   -0.193595
      5          1           0       -1.121021    0.729998   -0.775029
      6          1           0        1.121021   -0.729998    0.775029
      7          1           0        1.207702    0.945598    0.193595
      8          1           0        1.138376   -0.394940   -0.968674
 ---------------------------------------------------------------------

 The electronic state is 1-AG.
 Alpha  occ. eigenvalues --  -10.37231 -10.37159  -0.80705  -0.66586  -0.47064
 Alpha  occ. eigenvalues --   -0.47060  -0.38447  -0.37248  -0.37243
 Alpha virt. eigenvalues --    0.48293   0.48305   0.48973   0.55257   0.59162
 Alpha virt. eigenvalues --    0.59560   0.59577

 Mulliken charges:
               1
     1  C   -0.208675
     2  C   -0.208675
     3  H    0.069531
     4  H    0.069567
     5  H    0.069578
     6  H    0.069578
     7  H    0.069567
     8  H    0.069531
 Sum of Mulliken charges =   0.00000

 Dipole moment (field-independent basis, Debye):
    X=              0.0000    Y=              0.0000    Z=              0.0000  Tot=              0.0000
 Quadrupole moment (field-independent basis, Debye-Ang):
   XX=            -14.2056   YY=            -13.8462   ZZ=            -13.8456
   XY=              0.0188   XZ=              0.0003   YZ=             -0.0005

 Normal termination of Gaussian 09 at Tue Feb 21 17:19:11 2017.
