 Gaussian 09, Revision E.01,
 Gaussian 09:  ES64L-G09RevE.01 30-Nov-2015

 ---------------------
 #n M062X/6-31G(d) Opt
 ---------------------

 -------------------
 Ethane M062X 6-31Gd
 -------------------
 Symbolic Z-matrix:
 Charge =  0 Multiplicity = 1

 SCF Done:  E(RM062X) =  -79.7716415891     A.U. after   12 cycles
 SCF Done:  E(RM062X) =  -79.7718239483     A.U. after    7 cycles
 SCF Done:  E(RM062X) =  -79.7718425678     A.U. after    7 cycles
 Optimization completed.
    -- Stationary point found.

                         Standard orientation:
 ---------------------------------------------------------------------
 Center     Atomic      Atomic             Coordinates (Angstroms)
 Number     Number       Type             X           Y           Z
 ---------------------------------------------------------------------
      1          6           0       -0.761778    0.039386   -0.000063
      2          6           0        0.761778   -0.039386    0.000063
      3          1           0       -1.140417    0.393291    0.963254
      4          1           0       -1.209234   -0.940090   -0.192485
      5          1           0       -1.123134    0.726578   -0.770676
      6          1           0        1.123134   -0.726578    0.770676
      7          1           0        1.209234    0.940090    0.192485
      8          1           0        1.140417   -0.393291   -0.963254
 ---------------------------------------------------------------------

 The electronic state is 1-AG.
 Alpha  occ. eigenvalues --  -10.52944 -10.52908  -0.84507  -0.69672  -0.49912
 Alpha  occ. eigenvalues --   -0.49903  -0.42361  -0.39996  -0.39986
 Alpha virt. eigenvalues --    0.15072   0.20646   0.21252   0.21253   0.23679
 Alpha virt. eigenvalues --    0.23682   0.28850   0.56034   0.58890   0.58896
 Alpha virt. eigenvalues --    0.68607   0.68618   0.73526   0.95093   0.95098

 Mulliken charges:
               1
     1  C   -0.478749
     2  C   -0.478749
     3  H    0.159587
     4  H    0.159600
     5  H    0.159562
     6  H    0.159562
     7  H    0.159600
     8  H    0.159587
 Sum of Mulliken charges =   0.00000

 Dipole moment (field-independent basis, Debye):
    X=              0.0000    Y=              0.0000    Z=              0.0000  Tot=              0.0000
 Quadrupole moment (field-independent basis, Debye-Ang):
   XX=            -15.2809   YY=            -14.7432   ZZ=            -14.7448
   XY=              0.0277   XZ=             -0.0006   YZ=             -0.0003

 Normal termination of Gaussian 09 at Tue Feb 21 17:23:46 2017.
