 Gaussian 09, Revision E.01,
 Gaussian 09:  ES64L-G09RevE.01 30-Nov-2015

 ------------------
 #n M062X/3-21G Opt
 ------------------

 ------------------
 Ethane M062X 3-21G
 ------------------
 Symbolic Z-matrix:
 Charge =  0 Multiplicity = 1

 SCF Done:  E(RM062X) =  -79.3421858491     A.U. after   11 cycles
 SCF Done:  E(RM062X) =  -79.3422741912     A.U. after   10 cycles
 SCF Done:  E(RM062X) =  -79.3422812419     A.U. after    6 cycles
 Optimization completed.
    -- Stationary point found.

                         Standard orientation:
 ---------------------------------------------------------------------
 Center     Atomic      Atomic             Coordinates (Angstroms)
 Number     Number       Type             X           Y           Z
 ---------------------------------------------------------------------
      1          6           0       -0.770503    0.039844   -0.000191
      2          6           0        0.770503   -0.039844    0.000191
      3          1           0       -1.141066    0.394397    0.966269
      4          1           0       -1.210249   -0.943364   -0.193083
      5          1           0       -1.123835    0.728806   -0.773106
      6          1           0        1.123835   -0.728806    0.773106
      7          1           0        1.210249    0.943364    0.193083
      8          1           0        1.141066   -0.394397   -0.966269
 ---------------------------------------------------------------------

 The electronic state is 1-AG.
 Alpha  occ. eigenvalues --  -10.47028 -10.46973  -0.84190  -0.69587  -0.49838
 Alpha  occ. eigenvalues --   -0.49825  -0.42019  -0.39928  -0.39913
 Alpha virt. eigenvalues --    0.17823   0.23105   0.23109   0.23592   0.26221
 Alpha virt. eigenvalues --    0.26233   0.29701   0.73885   0.73895   0.79767
 Alpha virt. eigenvalues --    0.85007   0.90036   0.90070   1.05824   1.14380

 Mulliken charges:
               1
     1  C   -0.588717
     2  C   -0.588717
     3  H    0.196213
     4  H    0.196207
     5  H    0.196296
     6  H    0.196296
     7  H    0.196207
     8  H    0.196213
 Sum of Mulliken charges =   0.00000

 Dipole moment (field-independent basis, Debye):
    X=              0.0000    Y=              0.0000    Z=              0.0000  Tot=              0.0000
 Quadrupole moment (field-independent basis, Debye-Ang):
   XX=            -15.2334   YY=            -14.8171   ZZ=            -14.8204
   XY=              0.0209   XZ=              0.0004   YZ=             -0.0012

 Normal termination of Gaussian 09 at Tue Feb 21 17:29:13 2017.
