 Gaussian 09, Revision E.01,
 Gaussian 09:  ES64L-G09RevE.01 30-Nov-2015

 -------------------
 #n M062X/STO-3G Opt
 -------------------

 -----
 Title
 -----
 Symbolic Z-matrix:
 Charge =  0 Multiplicity = 1

 SCF Done:  E(RM062X) =  -77.6084801393     A.U. after   11 cycles
 SCF Done:  E(RM062X) =  -77.6087301155     A.U. after   10 cycles
 SCF Done:  E(RM062X) =  -77.6087423417     A.U. after    6 cycles
 Optimization completed.
    -- Stationary point found.

                         Standard orientation:
 ---------------------------------------------------------------------
 Center     Atomic      Atomic             Coordinates (Angstroms)
 Number     Number       Type             X           Y           Z
 ---------------------------------------------------------------------
      1          6           0        0.661226    0.000000    0.000000
      2          6           0       -0.661226    0.000000    0.000000
      3          1           0        1.240790   -0.925833    0.000001
      4          1           0        1.240790    0.925834    0.000001
      5          1           0       -1.240790   -0.925834    0.000001
      6          1           0       -1.240790    0.925833    0.000001
 ---------------------------------------------------------------------

 The electronic state is 1-A.
 Alpha  occ. eigenvalues --  -10.36146 -10.36131  -0.80879  -0.61696  -0.50124
 Alpha  occ. eigenvalues --   -0.43912  -0.37516  -0.27428
 Alpha virt. eigenvalues --    0.17974   0.44993   0.51663   0.51749   0.72611
 Alpha virt. eigenvalues --    0.76450

 Mulliken charges:
               1
     1  C   -0.149581
     2  C   -0.149581
     3  H    0.074791
     4  H    0.074791
     5  H    0.074791
     6  H    0.074791
 Sum of Mulliken charges =   0.00000

 Dipole moment (field-independent basis, Debye):
    X=              0.0000    Y=              0.0000    Z=              0.0000  Tot=              0.0000
 Quadrupole moment (field-independent basis, Debye-Ang):
   XX=            -11.6977   YY=            -11.6394   ZZ=            -13.4806
   XY=              0.0000   XZ=              0.0000   YZ=              0.0000

 Normal termination of Gaussian 09 at Fri Feb 24 00:14:55 2017.
