 Gaussian 09, Revision E.01,
 Gaussian 09:  ES64L-G09RevE.01 30-Nov-2015

 -------------------
 #n B3LYP/STO-3G Opt
 -------------------

 -----
 Title
 -----
 Symbolic Z-matrix:
 Charge =  0 Multiplicity = 1

 SCF Done:  E(RB3LYP) =  -77.6218426909     A.U. after    9 cycles
 SCF Done:  E(RB3LYP) =  -77.6224025326     A.U. after    9 cycles
 SCF Done:  E(RB3LYP) =  -77.6224339506     A.U. after    7 cycles
 Optimization completed.
    -- Stationary point found.

                         Standard orientation:
 ---------------------------------------------------------------------
 Center     Atomic      Atomic             Coordinates (Angstroms)
 Number     Number       Type             X           Y           Z
 ---------------------------------------------------------------------
      1          6           0        0.666545    0.000000    0.000000
      2          6           0       -0.666545    0.000000    0.000000
      3          1           0        1.247710   -0.930736    0.000000
      4          1           0        1.247709    0.930737    0.000000
      5          1           0       -1.247710   -0.930736    0.000000
      6          1           0       -1.247710    0.930736    0.000000
 ---------------------------------------------------------------------

 The electronic state is 1-A.
 Alpha  occ. eigenvalues --   -9.99309  -9.99279  -0.71536  -0.54062  -0.42959
 Alpha  occ. eigenvalues --   -0.37592  -0.31556  -0.21538
 Alpha virt. eigenvalues --    0.11735   0.37509   0.43239   0.43280   0.63126
 Alpha virt. eigenvalues --    0.69138

 Mulliken charges:
               1
     1  C   -0.154743
     2  C   -0.154743
     3  H    0.077371
     4  H    0.077371
     5  H    0.077371
     6  H    0.077371
 Sum of Mulliken charges =   0.00000

 Dipole moment (field-independent basis, Debye):
    X=              0.0000    Y=              0.0000    Z=              0.0000  Tot=              0.0000
 Quadrupole moment (field-independent basis, Debye-Ang):
   XX=            -11.6605   YY=            -11.5848   ZZ=            -13.4956
   XY=              0.0000   XZ=              0.0000   YZ=              0.0000

 Normal termination of Gaussian 09 at Fri Feb 24 00:12:14 2017.
