 Gaussian 09, Revision E.01,
 Gaussian 09:  ES64L-G09RevE.01 30-Nov-2015

 -----------------
 #n MP2/STO-3G Opt
 -----------------

 -----
 Title
 -----
 Symbolic Z-matrix:
 Charge =  0 Multiplicity = 1

 SCF Done:  E(RHF) =  -77.0730967777     A.U. after    7 cycles
 E2 =    -0.1212662582D+00 EUMP2 =    -0.77194363035900D+02
 SCF Done:  E(RHF) =  -77.0697255478     A.U. after    7 cycles
 E2 =    -0.1256441452D+00 EUMP2 =    -0.77195369692951D+02
 SCF Done:  E(RHF) =  -77.0706898311     A.U. after    6 cycles
 E2 =    -0.1247408401D+00 EUMP2 =    -0.77195430671207D+02
 Optimization completed.
    -- Stationary point found.

                         Standard orientation:
 ---------------------------------------------------------------------
 Center     Atomic      Atomic             Coordinates (Angstroms)
 Number     Number       Type             X           Y           Z
 ---------------------------------------------------------------------
      1          6           0        0.672644    0.000000    0.000000
      2          6           0       -0.672644    0.000000    0.000000
      3          1           0        1.249939   -0.934368    0.000000
      4          1           0        1.249938    0.934369    0.000001
      5          1           0       -1.249939   -0.934368    0.000001
      6          1           0       -1.249938    0.934368    0.000000
 ---------------------------------------------------------------------

 The electronic state is 1-A.
 Alpha  occ. eigenvalues --  -11.02000 -11.01928  -0.97077  -0.73965  -0.59391
 Alpha  occ. eigenvalues --   -0.52641  -0.45742  -0.32022
 Alpha virt. eigenvalues --    0.31627   0.61667   0.67547   0.67827   0.92059
 Alpha virt. eigenvalues --    0.97221

 Mulliken charges:
               1
     1  C   -0.120026
     2  C   -0.120026
     3  H    0.060013
     4  H    0.060013
     5  H    0.060013
     6  H    0.060013
 Sum of Mulliken charges =   0.00000

 Dipole moment (field-independent basis, Debye):
    X=              0.0000    Y=              0.0000    Z=              0.0000  Tot=              0.0000
 Quadrupole moment (field-independent basis, Debye-Ang):
   XX=            -11.9199   YY=            -11.8051   ZZ=            -13.5016
   XY=              0.0000   XZ=              0.0000   YZ=              0.0000

 Normal termination of Gaussian 09 at Fri Feb 24 00:13:07 2017.
