 Gaussian 09, Revision E.01,
 Gaussian 09:  ES64L-G09RevE.01 30-Nov-2015

 ------------------
 #n CCSD/STO-3G Opt
 ------------------

 ---------------
 CH3_CCSD/STO-3G
 ---------------
 Symbolic Z-matrix:
 Charge =  0 Multiplicity = 1

 SCF Done:  E(RHF) =  -78.3059324034     A.U. after    7 cycles
 E2 =    -0.1065506178D+00 EUMP2 =    -0.78412483021170D+02
 SCF Done:  E(RHF) =  -78.3012694128     A.U. after    7 cycles
 E2 =    -0.1112501878D+00 EUMP2 =    -0.78412519600627D+02
 SCF Done:  E(RHF) =  -78.3025266346     A.U. after    6 cycles
 E2 =    -0.1104402475D+00 EUMP2 =    -0.78412966882070D+02
 SCF Done:  E(RHF) =  -78.3025935990     A.U. after    6 cycles
 E2 =    -0.1103973193D+00 EUMP2 =    -0.78412990918304D+02
 Optimization completed.
    -- Stationary point found.

                         Standard orientation:
 ---------------------------------------------------------------------
 Center     Atomic      Atomic             Coordinates (Angstroms)
 Number     Number       Type             X           Y           Z
 ---------------------------------------------------------------------
      1          6           0       -0.417789    0.660471    0.000000
      2          6           0        0.417789   -0.660471    0.000000
      3          1           0       -1.368664    0.524409    0.559197
      4          1           0       -0.667031    0.968235   -1.038526
      5          1           0        0.151510    1.486013    0.479330
      6          1           0       -0.151510   -1.486013   -0.479330
      7          1           0        0.667031   -0.968235    1.038526
      8          1           0        1.368664   -0.524409   -0.559197
 ---------------------------------------------------------------------

 The electronic state is 1-AG.
 Alpha  occ. eigenvalues --  -11.03760 -11.03725  -0.96642  -0.80107  -0.55952
 Alpha  occ. eigenvalues --   -0.55952  -0.46201  -0.45333  -0.45333
 Alpha virt. eigenvalues --    0.63543   0.63543   0.66550   0.70558   0.74120
 Alpha virt. eigenvalues --    0.76327   0.76327

 Mulliken charges:
               1
     1  C   -0.156334
     2  C   -0.156334
     3  H    0.052111
     4  H    0.052111
     5  H    0.052111
     6  H    0.052111
     7  H    0.052111
     8  H    0.052111
 Sum of Mulliken charges =   0.00000

 Dipole moment (field-independent basis, Debye):
    X=              0.0000    Y=              0.0000    Z=              0.0000  Tot=              0.0000
 Quadrupole moment (field-independent basis, Debye-Ang):
   XX=            -14.1483   YY=            -14.3121   ZZ=            -14.0390
   XY=              0.1728   XZ=              0.0000   YZ=              0.0000

 Normal termination of Gaussian 09 at Thu Feb 23 18:27:24 2017.
