 Gaussian 09, Revision E.01,
 Gaussian 09:  ES64L-G09RevE.01 30-Nov-2015

 -------------------
 #n B3LYP/STO-3G Opt
 -------------------

 ----------------
 CH3_B3LYP/STO-3G
 ----------------
 Symbolic Z-matrix:
 Charge =  0 Multiplicity = 1

 SCF Done:  E(RB3LYP) =  -78.8853923536     A.U. after    9 cycles
 SCF Done:  E(RB3LYP) =  -78.8858648052     A.U. after    9 cycles
 SCF Done:  E(RB3LYP) =  -78.8859038090     A.U. after    5 cycles
 Optimization completed.
    -- Stationary point found.

                         Standard orientation:
 ---------------------------------------------------------------------
 Center     Atomic      Atomic             Coordinates (Angstroms)
 Number     Number       Type             X           Y           Z
 ---------------------------------------------------------------------
      1          6           0       -0.414645    0.655478    0.000010
      2          6           0        0.414645   -0.655478   -0.000010
      3          1           0       -1.356438    0.520425    0.553971
      4          1           0       -0.661360    0.960120   -1.028804
      5          1           0        0.149497    1.473053    0.474827
      6          1           0       -0.149497   -1.473053   -0.474827
      7          1           0        0.661360   -0.960120    1.028804
      8          1           0        1.356438   -0.520425   -0.553971
 ---------------------------------------------------------------------

 The electronic state is 1-AG.
 Alpha  occ. eigenvalues --  -10.00380 -10.00278  -0.71209  -0.58303  -0.40020
 Alpha  occ. eigenvalues --   -0.40018  -0.32273  -0.31051  -0.31049
 Alpha virt. eigenvalues --    0.40493   0.40495   0.41884   0.46732   0.50280
 Alpha virt. eigenvalues --    0.50947   0.50951

 Mulliken charges:
               1
     1  C   -0.215984
     2  C   -0.215984
     3  H    0.071998
     4  H    0.071993
     5  H    0.071993
     6  H    0.071993
     7  H    0.071993
     8  H    0.071998
 Sum of Mulliken charges =   0.00000

 Dipole moment (field-independent basis, Debye):
    X=              0.0000    Y=              0.0000    Z=              0.0000  Tot=              0.0000
 Quadrupole moment (field-independent basis, Debye-Ang):
   XX=            -13.9073   YY=            -14.0512   ZZ=            -13.8113
   XY=              0.1519   XZ=             -0.0001   YZ=             -0.0001

 Normal termination of Gaussian 09 at Thu Feb 23 18:25:38 2017.
