 Gaussian 09, Revision E.01,
 Gaussian 09:  ES64L-G09RevE.01 30-Nov-2015

 -------------------
 #n M062X/STO-3G Opt
 -------------------

 ----------------
 CH3_M062X/STO-3G
 ----------------
 Symbolic Z-matrix:
 Charge =  0 Multiplicity = 1

 SCF Done:  E(RM062X) =  -78.8666407779     A.U. after   11 cycles
 SCF Done:  E(RM062X) =  -78.8667212904     A.U. after    6 cycles
 SCF Done:  E(RM062X) =  -78.8667309886     A.U. after    5 cycles
 Optimization completed.
    -- Stationary point found.

                         Standard orientation:
 ---------------------------------------------------------------------
 Center     Atomic      Atomic             Coordinates (Angstroms)
 Number     Number       Type             X           Y           Z
 ---------------------------------------------------------------------
      1          6           0       -0.411983    0.651162   -0.000008
      2          6           0        0.411983   -0.651162    0.000008
      3          1           0       -1.348985    0.515961    0.551479
      4          1           0       -0.657061    0.953569   -1.024236
      5          1           0        0.150240    1.464159    0.472767
      6          1           0       -0.150240   -1.464159   -0.472767
      7          1           0        0.657061   -0.953569    1.024236
      8          1           0        1.348985   -0.515961   -0.551479
 ---------------------------------------------------------------------

 The electronic state is 1-AG.
 Alpha  occ. eigenvalues --  -10.37232 -10.37160  -0.80706  -0.66585  -0.47064
 Alpha  occ. eigenvalues --   -0.47062  -0.38444  -0.37248  -0.37248
 Alpha virt. eigenvalues --    0.48302   0.48309   0.48973   0.55256   0.59166
 Alpha virt. eigenvalues --    0.59566   0.59574

 Mulliken charges:
               1
     1  C   -0.208660
     2  C   -0.208660
     3  H    0.069558
     4  H    0.069542
     5  H    0.069560
     6  H    0.069560
     7  H    0.069542
     8  H    0.069558
 Sum of Mulliken charges =   0.00000

 Dipole moment (field-independent basis, Debye):
    X=              0.0000    Y=              0.0000    Z=              0.0000  Tot=              0.0000
 Quadrupole moment (field-independent basis, Debye-Ang):
   XX=            -13.9489   YY=            -14.1042   ZZ=            -13.8451
   XY=              0.1637   XZ=              0.0000   YZ=              0.0002

 Normal termination of Gaussian 09 at Thu Feb 23 18:28:58 2017.
