 Gaussian 09, Revision E.01,
 Gaussian 09:  ES64L-G09RevE.01 30-Nov-2015

 -----------------
 #n MP2/STO-3G Opt
 -----------------

 --------------
 CH3_MP2/STO-3G
 --------------
 Symbolic Z-matrix:
 Charge =  0 Multiplicity = 1

 SCF Done:  E(RHF) =  -78.3059324034     A.U. after    7 cycles
 E2 =    -0.1065506178D+00 EUMP2 =    -0.78412483021170D+02
 SCF Done:  E(RHF) =  -78.3037972564     A.U. after    6 cycles
 E2 =    -0.1094462175D+00 EUMP2 =    -0.78413243473886D+02
 SCF Done:  E(RHF) =  -78.3044730750     A.U. after    6 cycles
 E2 =    -0.1088577740D+00 EUMP2 =    -0.78413330849012D+02
 SCF Done:  E(RHF) =  -78.3045269556     A.U. after    6 cycles
 E2 =    -0.1088048922D+00 EUMP2 =    -0.78413331847778D+02
 Optimization completed.
    -- Stationary point found.

                         Standard orientation:
 ---------------------------------------------------------------------
 Center     Atomic      Atomic             Coordinates (Angstroms)
 Number     Number       Type             X           Y           Z
 ---------------------------------------------------------------------
      1          6           0       -0.415752    0.657251    0.000000
      2          6           0        0.415752   -0.657251    0.000000
      3          1           0       -1.359612    0.522816    0.554859
      4          1           0       -0.663423    0.963199   -1.030470
      5          1           0        0.148769    1.476961    0.475611
      6          1           0       -0.148769   -1.476961   -0.475611
      7          1           0        0.663423   -0.963199    1.030470
      8          1           0        1.359612   -0.522816   -0.554859
 ---------------------------------------------------------------------

 The electronic state is 1-AG.
 Alpha  occ. eigenvalues --  -11.03691 -11.03657  -0.97097  -0.80481  -0.56342
 Alpha  occ. eigenvalues --   -0.56342  -0.46515  -0.45566  -0.45566
 Alpha virt. eigenvalues --    0.64189   0.64189   0.67203   0.71608   0.75403
 Alpha virt. eigenvalues --    0.77161   0.77161

 Mulliken charges:
               1
     1  C   -0.162206
     2  C   -0.162206
     3  H    0.054069
     4  H    0.054069
     5  H    0.054069
     6  H    0.054069
     7  H    0.054069
     8  H    0.054069
 Sum of Mulliken charges =   0.00000

 Dipole moment (field-independent basis, Debye):
    X=              0.0000    Y=              0.0000    Z=              0.0000  Tot=              0.0000
 Quadrupole moment (field-independent basis, Debye-Ang):
   XX=            -14.1477   YY=            -14.3099   ZZ=            -14.0394
   XY=              0.1711   XZ=              0.0000   YZ=              0.0000

 Normal termination of Gaussian 09 at Thu Feb 23 18:26:29 2017.
