 Gaussian 09, Revision E.01,
 Gaussian 09:  ES64L-G09RevE.01 30-Nov-2015

 -----------------
 #n MP2/STO-3G Opt
 -----------------

 -----
 Title
 -----
 Symbolic Z-matrix:
 Charge =  0 Multiplicity = 1

 SCF Done:  E(RHF) =  -1.03654123068     A.U. after    1 cycles
 E2 =    -0.2426727266D-01 EUMP2 =    -0.10608085033477D+01
 SCF Done:  E(RHF) =  -1.08188911165     A.U. after    1 cycles
 E2 =    -0.1861938197D-01 EUMP2 =    -0.11005084936229D+01
 SCF Done:  E(RHF) =  -1.11726331696     A.U. after    1 cycles
 E2 =    -0.1216872158D-01 EUMP2 =    -0.11294320385474D+01
 SCF Done:  E(RHF) =  -1.11734508173     A.U. after    1 cycles
 E2 =    -0.1279048411D-01 EUMP2 =    -0.11301355658391D+01
 SCF Done:  E(RHF) =  -1.11737339216     A.U. after    1 cycles
 E2 =    -0.1276348407D-01 EUMP2 =    -0.11301368762304D+01
 Optimization completed.
    -- Stationary point found.

                         Standard orientation:
 ---------------------------------------------------------------------
 Center     Atomic      Atomic             Coordinates (Angstroms)
 Number     Number       Type             X           Y           Z
 ---------------------------------------------------------------------
      1          1           0        0.000000    0.000000    0.361871
      2          1           0        0.000000    0.000000   -0.361871
 ---------------------------------------------------------------------

 The electronic state is 1-SGG.
 Alpha  occ. eigenvalues --   -0.58534
 Alpha virt. eigenvalues --    0.68822

 Mulliken charges:
               1
     1  H    0.000000
     2  H    0.000000
 Sum of Mulliken charges =   0.00000

 Dipole moment (field-independent basis, Debye):
    X=              0.0000    Y=              0.0000    Z=              0.0000  Tot=              0.0000
 Quadrupole moment (field-independent basis, Debye-Ang):
   XX=             -1.8449   YY=             -1.8449   ZZ=             -1.4391
   XY=              0.0000   XZ=              0.0000   YZ=              0.0000

 Normal termination of Gaussian 09 at Fri Feb 24 00:03:29 2017.
