 Gaussian 09, Revision E.01,
 Gaussian 09:  ES64L-G09RevE.01 30-Nov-2015

 -------------------
 #n M062X/STO-3G Opt
 -------------------

 -----
 Title
 -----
 Symbolic Z-matrix:
 Charge =  0 Multiplicity = 1

 SCF Done:  E(RM062X) =  -1.08589087060     A.U. after    3 cycles
 SCF Done:  E(RM062X) =  -1.12507668767     A.U. after    3 cycles
 SCF Done:  E(RM062X) =  -1.15288334853     A.U. after    3 cycles
 SCF Done:  E(RM062X) =  -1.15459616665     A.U. after    3 cycles
 SCF Done:  E(RM062X) =  -1.15459761709     A.U. after    1 cycles
 Optimization completed.
    -- Stationary point found.

                         Standard orientation:
 ---------------------------------------------------------------------
 Center     Atomic      Atomic             Coordinates (Angstroms)
 Number     Number       Type             X           Y           Z
 ---------------------------------------------------------------------
      1          1           0        0.000000    0.000000    0.361032
      2          1           0        0.000000    0.000000   -0.361032
 ---------------------------------------------------------------------

 The electronic state is 1-SGG.
 Alpha  occ. eigenvalues --   -0.48749
 Alpha virt. eigenvalues --    0.64128

 Mulliken charges:
               1
     1  H    0.000000
     2  H    0.000000
 Sum of Mulliken charges =   0.00000

 Dipole moment (field-independent basis, Debye):
    X=              0.0000    Y=              0.0000    Z=              0.0000  Tot=              0.0000
 Quadrupole moment (field-independent basis, Debye-Ang):
   XX=             -1.8446   YY=             -1.8446   ZZ=             -1.4403
   XY=              0.0000   XZ=              0.0000   YZ=              0.0000

 Normal termination of Gaussian 09 at Fri Feb 24 00:06:07 2017.
