 Gaussian 09, Revision A.02,
 Gaussian 09:  EM64L-G09RevA.02 11-Jun-2009

 --------------------------------------
 # opt M062X/6-311+G* geom=connectivity
 --------------------------------------

 -------------------
 Title Card Required
 -------------------
 Symbolic Z-matrix:
 Charge =  0 Multiplicity = 2

 SCF Done:  E(UM062X) =  -189.044577996     A.U. after   21 cycles
 SCF Done:  E(UM062X) =  -189.052838696     A.U. after   16 cycles
 SCF Done:  E(UM062X) =  -189.054022797     A.U. after   15 cycles
 SCF Done:  E(UM062X) =  -189.054183995     A.U. after   14 cycles
 SCF Done:  E(UM062X) =  -189.054197363     A.U. after   17 cycles
 Optimization completed.
    -- Stationary point found.

                         Standard orientation:
 ---------------------------------------------------------------------
 Center     Atomic      Atomic             Coordinates (Angstroms)
 Number     Number       Type             X           Y           Z
 ---------------------------------------------------------------------
      1          8           0        1.159356   -0.157108    0.000000
      2          6           0        0.000364    0.191108   -0.000001
      3          1           0       -0.002942    1.370304    0.000001
      4          8           0       -1.159261   -0.157511    0.000000
 ---------------------------------------------------------------------

 The electronic state is 2-A.
 Alpha  occ. eigenvalues --  -19.70223 -19.70111 -10.72465  -1.28443  -1.21692
 Alpha  occ. eigenvalues --   -0.73573  -0.63979  -0.61130  -0.58524  -0.46513
 Alpha  occ. eigenvalues --   -0.43918  -0.41103
 Alpha virt. eigenvalues --    0.01648   0.03052   0.03691   0.05093   0.05700
 Alpha virt. eigenvalues --    0.15684   0.18886   0.19145   0.20813   0.22207
 Alpha virt. eigenvalues --    0.26405   0.26678   0.26972   0.31772   0.39063

  Beta  occ. eigenvalues --  -19.69421 -19.69326 -10.72604  -1.26019  -1.18802
  Beta  occ. eigenvalues --   -0.68314  -0.61895  -0.57731  -0.57719  -0.42266
  Beta  occ. eigenvalues --   -0.38957
  Beta virt. eigenvalues --   -0.17472   0.01558   0.03359   0.04135   0.04997
  Beta virt. eigenvalues --    0.05762   0.15358   0.18749   0.18765   0.20973
  Beta virt. eigenvalues --    0.22701   0.26492   0.26799   0.26912   0.31696

 Mulliken atomic charges:
              1
     1  O   -0.164689
     2  C    0.043566
     3  H    0.282809
     4  O   -0.161686
 Sum of Mulliken atomic charges =   0.00000

 Dipole moment (field-independent basis, Debye):
    X=             -0.0152    Y=              1.7610    Z=              0.0000  Tot=              1.7610
 Quadrupole moment (field-independent basis, Debye-Ang):
   XX=            -21.4093   YY=            -14.1986   ZZ=            -16.1975
   XY=              0.0003   XZ=              0.0000   YZ=              0.0000

 1\1\GINC-N0296\FOpt\UM062X\6-311+G(d)\C1H1O2(2)\WAB665\08-Mar-2017\0\\
 # opt M062X/6-311+G* geom=connectivity\\Title Card Required\\0,2\O,0.5
 337621588,0.2533684595,0.003495272\C,-0.6437269104,-0.0258069205,-0.00
 63119398\H,-1.2374140186,0.9924415965,0.028618565\O,-1.4726212298,-0.9
 080031355,-0.0368018972\\Version=EM64L-G09RevA.02\State=2-A\HF=-189.05
 41974\S2=0.759014\S2-1=0.\S2A=0.750054\RMSD=4.120e-09\RMSF=1.314e-04\D
 ipole=-0.3523243,0.5962275,0.0204504\Quadrupole=-1.7329783,0.9366061,0
 .7963721,-2.3230629,-0.0803521,0.0044328\PG=C01 [X(C1H1O2)]\\@

 Normal termination of Gaussian 09 at Wed Mar  8 15:17:14 2017.
