 Gaussian 09, Revision E.01,
 Gaussian 09:  ES64L-G09RevE.01 30-Nov-2015

 -----------------------
 #n M062X/6-31G(d,p) Opt
 -----------------------

 --------------------
 Ethyne M062X 6-31Gdp
 --------------------
 Symbolic Z-matrix:
 Charge =  0 Multiplicity = 1

 SCF Done:  E(RM062X) =  -77.2909386138     A.U. after   11 cycles
 SCF Done:  E(RM062X) =  -77.2910546920     A.U. after    7 cycles
 SCF Done:  E(RM062X) =  -77.2910564195     A.U. after    6 cycles
 Optimization completed.
    -- Stationary point found.

                         Standard orientation:
 ---------------------------------------------------------------------
 Center     Atomic      Atomic             Coordinates (Angstroms)
 Number     Number       Type             X           Y           Z
 ---------------------------------------------------------------------
      1          6           0        0.000000    0.000000   -0.601175
      2          6           0        0.000000    0.000000    0.601175
      3          1           0        0.000000    0.000000   -1.667608
      4          1           0        0.000000    0.000000    1.667608
 ---------------------------------------------------------------------

 The electronic state is 1-SGG.
 Alpha  occ. eigenvalues --  -10.54991 -10.54721  -0.83705  -0.63729  -0.55289
 Alpha  occ. eigenvalues --   -0.34308  -0.34308
 Alpha virt. eigenvalues --    0.09890   0.09890   0.15769   0.20375   0.48038
 Alpha virt. eigenvalues --    0.51690   0.58875   0.58875   0.71909   0.71909
 Alpha virt. eigenvalues --    0.79171   0.86662   1.08186   1.28031   1.44310

 Mulliken charges:
               1
     1  C   -0.184647
     2  C   -0.184647
     3  H    0.184647
     4  H    0.184647
 Sum of Mulliken charges =   0.00000

 Dipole moment (field-independent basis, Debye):
    X=              0.0000    Y=              0.0000    Z=              0.0000  Tot=              0.0000
 Quadrupole moment (field-independent basis, Debye-Ang):
   XX=            -13.1002   YY=            -13.1002   ZZ=             -6.6701
   XY=              0.0000   XZ=              0.0000   YZ=              0.0000

 Normal termination of Gaussian 09 at Tue Feb 21 19:26:00 2017.
