 Gaussian 09, Revision E.01,
 Gaussian 09:  ES64L-G09RevE.01 30-Nov-2015

 ---------------------
 #n M062X/6-31G(d) Opt
 ---------------------

 -------------------
 Ethyne M062X 6-31Gd
 -------------------
 Symbolic Z-matrix:
 Charge =  0 Multiplicity = 1

 SCF Done:  E(RM062X) =  -77.2876298850     A.U. after   11 cycles
 SCF Done:  E(RM062X) =  -77.2877693651     A.U. after    7 cycles
 SCF Done:  E(RM062X) =  -77.2877716673     A.U. after    6 cycles
 Optimization completed.
    -- Stationary point found.

                         Standard orientation:
 ---------------------------------------------------------------------
 Center     Atomic      Atomic             Coordinates (Angstroms)
 Number     Number       Type             X           Y           Z
 ---------------------------------------------------------------------
      1          6           0        0.000000    0.000000   -0.600965
      2          6           0        0.000000    0.000000    0.600965
      3          1           0        0.000000    0.000000   -1.668083
      4          1           0        0.000000    0.000000    1.668083
 ---------------------------------------------------------------------

 The electronic state is 1-SGG.
 Alpha  occ. eigenvalues --  -10.55017 -10.54745  -0.83726  -0.63850  -0.55424
 Alpha  occ. eigenvalues --   -0.34305  -0.34305
 Alpha virt. eigenvalues --    0.10044   0.10044   0.15706   0.20292   0.48106
 Alpha virt. eigenvalues --    0.51688   0.58856   0.58856   0.71891   0.71891
 Alpha virt. eigenvalues --    0.79151   0.87953   1.09050   1.30068   1.54817

 Mulliken charges:
               1
     1  C   -0.222889
     2  C   -0.222889
     3  H    0.222889
     4  H    0.222889
 Sum of Mulliken charges =   0.00000

 Dipole moment (field-independent basis, Debye):
    X=              0.0000    Y=              0.0000    Z=              0.0000  Tot=              0.0000
 Quadrupole moment (field-independent basis, Debye-Ang):
   XX=            -13.1188   YY=            -13.1188   ZZ=             -6.6511
   XY=              0.0000   XZ=              0.0000   YZ=              0.0000

 Normal termination of Gaussian 09 at Tue Feb 21 19:21:25 2017.
