 Gaussian 09, Revision E.01,
 Gaussian 09:  ES64L-G09RevE.01 30-Nov-2015

 ------------------
 #n M062X/3-21G Opt
 ------------------

 ------------------
 Ethyne M062X 3-21G
 ------------------
 Symbolic Z-matrix:
 Charge =  0 Multiplicity = 1

 SCF Done:  E(RM062X) =  -76.8672551411     A.U. after   11 cycles
 SCF Done:  E(RM062X) =  -76.8672962319     A.U. after    7 cycles
 SCF Done:  E(RM062X) =  -76.8672973320     A.U. after    6 cycles
 Optimization completed.
    -- Stationary point found.

                         Standard orientation:
 ---------------------------------------------------------------------
 Center     Atomic      Atomic             Coordinates (Angstroms)
 Number     Number       Type             X           Y           Z
 ---------------------------------------------------------------------
      1          6           0        0.000000    0.000000   -0.601129
      2          6           0        0.000000    0.000000    0.601129
      3          1           0        0.000000    0.000000   -1.663222
      4          1           0        0.000000    0.000000    1.663222
 ---------------------------------------------------------------------

 The electronic state is 1-SGG.
 Alpha  occ. eigenvalues --  -10.49810 -10.49738  -0.85020  -0.63813  -0.56414
 Alpha  occ. eigenvalues --   -0.35148  -0.35148
 Alpha virt. eigenvalues --    0.10563   0.10563   0.17477   0.22597   0.53986
 Alpha virt. eigenvalues --    0.76210   0.77089   0.77089   0.88253   0.88253
 Alpha virt. eigenvalues --    1.07397   1.12652   1.30598   1.38070   2.01716

 Mulliken charges:
               1
     1  C   -0.269640
     2  C   -0.269640
     3  H    0.269640
     4  H    0.269640
 Sum of Mulliken charges =   0.00000

 Dipole moment (field-independent basis, Debye):
    X=              0.0000    Y=              0.0000    Z=              0.0000  Tot=              0.0000
 Quadrupole moment (field-independent basis, Debye-Ang):
   XX=            -13.3723   YY=            -13.3723   ZZ=             -6.9278
   XY=              0.0000   XZ=              0.0000   YZ=              0.0000

 Normal termination of Gaussian 09 at Tue Feb 21 19:21:24 2017.
