 Gaussian 09, Revision E.01,
 Gaussian 09:  ES64L-G09RevE.01 30-Nov-2015

 -------------------
 #n M062X/STO-3G Opt
 -------------------

 -------------------
 Ethyne M062X STO-3G
 -------------------
 Symbolic Z-matrix:
 Charge =  0 Multiplicity = 1

 SCF Done:  E(RM062X) =  -76.3528084827     A.U. after    9 cycles
 SCF Done:  E(RM062X) =  -76.3537813575     A.U. after    6 cycles
 SCF Done:  E(RM062X) =  -76.3539022234     A.U. after    5 cycles
 SCF Done:  E(RM062X) =  -76.3539026776     A.U. after    5 cycles
 Optimization completed.
    -- Stationary point found.

                         Standard orientation:
 ---------------------------------------------------------------------
 Center     Atomic      Atomic             Coordinates (Angstroms)
 Number     Number       Type             X           Y           Z
 ---------------------------------------------------------------------
      1          6           0        0.000000    0.000000   -0.596298
      2          6           0        0.000000    0.000000    0.596298
      3          1           0        0.000000    0.000000   -1.674121
      4          1           0        0.000000    0.000000    1.674121
 ---------------------------------------------------------------------

 The electronic state is 1-SGG.
 Alpha  occ. eigenvalues --  -10.34854 -10.34652  -0.78732  -0.59149  -0.50688
 Alpha  occ. eigenvalues --   -0.29340  -0.29340
 Alpha virt. eigenvalues --    0.24072   0.24072   0.38218   0.53212   1.19458

 Mulliken charges:
               1
     1  C   -0.114857
     2  C   -0.114857
     3  H    0.114857
     4  H    0.114857
 Sum of Mulliken charges =   0.00000

 Dipole moment (field-independent basis, Debye):
    X=              0.0000    Y=              0.0000    Z=              0.0000  Tot=              0.0000
 Quadrupole moment (field-independent basis, Debye-Ang):
   XX=            -11.7618   YY=            -11.7618   ZZ=             -7.3687
   XY=              0.0000   XZ=              0.0000   YZ=              0.0000

 Normal termination of Gaussian 09 at Tue Feb 21 19:27:32 2017.
