 Gaussian 09, Revision E.01,
 Gaussian 09:  ES64L-G09RevE.01 30-Nov-2015

 -------------------
 #n CCSD/LANL2DZ Opt
 -------------------

 ---------------------
 Hydrogen CCSD LANL2DZ
 ---------------------
 Symbolic Z-matrix:
 Charge =  0 Multiplicity = 1

 SCF Done:  E(RHF) =  -1.12624796212     A.U. after    4 cycles
 E2 =    -0.1696739134D-01 EUMP2 =    -0.11432153534571D+01
 SCF Done:  E(RHF) =  -1.12651777102     A.U. after    4 cycles
 E2 =    -0.1735658056D-01 EUMP2 =    -0.11438743515798D+01
 SCF Done:  E(RHF) =  -1.12646928375     A.U. after    3 cycles
 E2 =    -0.1738070658D-01 EUMP2 =    -0.11438499903320D+01
 Optimization completed.
    -- Stationary point found.

                         Standard orientation:
 ---------------------------------------------------------------------
 Center     Atomic      Atomic             Coordinates (Angstroms)
 Number     Number       Type             X           Y           Z
 ---------------------------------------------------------------------
      1          1           0        0.000000    0.000000    0.373651
      2          1           0        0.000000    0.000000   -0.373651
 ---------------------------------------------------------------------

 The electronic state is 1-SGG.
 Alpha  occ. eigenvalues --   -0.59080
 Alpha virt. eigenvalues --    0.25794   0.85616   1.47244

 Mulliken charges:
               1
     1  H    0.000000
     2  H    0.000000
 Sum of Mulliken charges =   0.00000

 Dipole moment (field-independent basis, Debye):
    X=              0.0000    Y=              0.0000    Z=              0.0000  Tot=              0.0000
 Quadrupole moment (field-independent basis, Debye-Ang):
   XX=             -1.9765   YY=             -1.9765   ZZ=             -1.5386
   XY=              0.0000   XZ=              0.0000   YZ=              0.0000

 Normal termination of Gaussian 09 at Tue Feb 21 19:06:43 2017.
