 Gaussian 09, Revision E.01,
 Gaussian 09:  ES64L-G09RevE.01 30-Nov-2015

 -----------------
 #n CCSD/3-21G Opt
 -----------------

 -------------------
 Hydrogen CCSD 3-21G
 -------------------
 Symbolic Z-matrix:
 Charge =  0 Multiplicity = 1

 SCF Done:  E(RHF) =  -1.12239716244     A.U. after    4 cycles
 E2 =    -0.1701549017D-01 EUMP2 =    -0.11394126526148D+01
 SCF Done:  E(RHF) =  -1.12283488338     A.U. after    4 cycles
 E2 =    -0.1738843869D-01 EUMP2 =    -0.11402233220747D+01
 SCF Done:  E(RHF) =  -1.12279902204     A.U. after    3 cycles
 E2 =    -0.1740544678D-01 EUMP2 =    -0.11402044688119D+01
 Optimization completed.
    -- Stationary point found.

                         Standard orientation:
 ---------------------------------------------------------------------
 Center     Atomic      Atomic             Coordinates (Angstroms)
 Number     Number       Type             X           Y           Z
 ---------------------------------------------------------------------
      1          1           0        0.000000    0.000000    0.374906
      2          1           0        0.000000    0.000000   -0.374906
 ---------------------------------------------------------------------

 The electronic state is 1-SGG.
 Alpha  occ. eigenvalues --   -0.58963
 Alpha virt. eigenvalues --    0.26131   0.92556   1.51391

 Mulliken charges:
               1
     1  H    0.000000
     2  H    0.000000
 Sum of Mulliken charges =   0.00000

 Dipole moment (field-independent basis, Debye):
    X=              0.0000    Y=              0.0000    Z=              0.0000  Tot=              0.0000
 Quadrupole moment (field-independent basis, Debye-Ang):
   XX=             -2.0141   YY=             -2.0141   ZZ=             -1.5749
   XY=              0.0000   XZ=              0.0000   YZ=              0.0000

 Normal termination of Gaussian 09 at Tue Feb 21 19:11:19 2017.
