 Gaussian 09, Revision E.01,
 Gaussian 09:  ES64L-G09RevE.01 30-Nov-2015

 --------------------
 #n CCSD/6-31G(d) Opt
 --------------------

 --------------------
 Hydrogen CCSD 6-31Gd
 --------------------
 Symbolic Z-matrix:
 Charge =  0 Multiplicity = 1

 SCF Done:  E(RHF) =  -1.12645586409     A.U. after    4 cycles
 E2 =    -0.1703379690D-01 EUMP2 =    -0.11434896609876D+01
 SCF Done:  E(RHF) =  -1.12668758373     A.U. after    4 cycles
 E2 =    -0.1742445729D-01 EUMP2 =    -0.11441120410186D+01
 SCF Done:  E(RHF) =  -1.12664048874     A.U. after    3 cycles
 E2 =    -0.1744857208D-01 EUMP2 =    -0.11440890608218D+01
 Optimization completed.
    -- Stationary point found.

                         Standard orientation:
 ---------------------------------------------------------------------
 Center     Atomic      Atomic             Coordinates (Angstroms)
 Number     Number       Type             X           Y           Z
 ---------------------------------------------------------------------
      1          1           0        0.000000    0.000000    0.373103
      2          1           0        0.000000    0.000000   -0.373103
 ---------------------------------------------------------------------

 The electronic state is 1-SGG.
 Alpha  occ. eigenvalues --   -0.59394
 Alpha virt. eigenvalues --    0.23681   0.77772   1.39629

 Mulliken charges:
               1
     1  H    0.000000
     2  H    0.000000
 Sum of Mulliken charges =   0.00000

 Dipole moment (field-independent basis, Debye):
    X=              0.0000    Y=              0.0000    Z=              0.0000  Tot=              0.0000
 Quadrupole moment (field-independent basis, Debye-Ang):
   XX=             -2.0526   YY=             -2.0526   ZZ=             -1.6221
   XY=              0.0000   XZ=              0.0000   YZ=              0.0000

 Normal termination of Gaussian 09 at Tue Feb 21 19:09:47 2017.
