 Gaussian 09, Revision E.01,
 Gaussian 09:  ES64L-G09RevE.01 30-Nov-2015

 ----------------------
 #n CCSD/6-31G(d,p) Opt
 ----------------------

 ---------------------
 Hydrogen CCSD 6-31Gdp
 ---------------------
 Symbolic Z-matrix:
 Charge =  0 Multiplicity = 1

 SCF Done:  E(RHF) =  -1.13086799408     A.U. after    5 cycles
 E2 =    -0.2628219650D-01 EUMP2 =    -0.11571501905752D+01
 SCF Done:  E(RHF) =  -1.13131470973     A.U. after    4 cycles
 E2 =    -0.2633584834D-01 EUMP2 =    -0.11576505580687D+01
 SCF Done:  E(RHF) =  -1.13130860017     A.U. after    4 cycles
 E2 =    -0.2633729386D-01 EUMP2 =    -0.11576458940282D+01
 Optimization completed.
    -- Stationary point found.

                         Standard orientation:
 ---------------------------------------------------------------------
 Center     Atomic      Atomic             Coordinates (Angstroms)
 Number     Number       Type             X           Y           Z
 ---------------------------------------------------------------------
      1          1           0        0.000000    0.000000    0.369226
      2          1           0        0.000000    0.000000   -0.369226
 ---------------------------------------------------------------------

 The electronic state is 1-SGG.
 Alpha  occ. eigenvalues --   -0.59540
 Alpha virt. eigenvalues --    0.23994   0.77053   1.31191   1.95914   1.95914
 Alpha virt. eigenvalues --    2.70929   2.93294   2.93294   4.54274

 Mulliken charges:
               1
     1  H    0.000000
     2  H    0.000000
 Sum of Mulliken charges =   0.00000

 Dipole moment (field-independent basis, Debye):
    X=              0.0000    Y=              0.0000    Z=              0.0000  Tot=              0.0000
 Quadrupole moment (field-independent basis, Debye-Ang):
   XX=             -2.0584   YY=             -2.0584   ZZ=             -1.5218
   XY=              0.0000   XZ=              0.0000   YZ=              0.0000

 Normal termination of Gaussian 09 at Tue Feb 21 19:07:26 2017.
