 Gaussian 09, Revision E.01,
 Gaussian 09:  ES64L-G09RevE.01 30-Nov-2015

 ---------------------
 #n MP2/6-31G(d,p) Opt
 ---------------------

 ------------------
 Ethene MP2 6-31Gdp
 ------------------
 Symbolic Z-matrix:
 Charge =  0 Multiplicity = 1

 SCF Done:  E(RHF) =  -78.0383400595     A.U. after    9 cycles
 E2 =    -0.2786276272D+00 EUMP2 =    -0.78316967686750D+02
 SCF Done:  E(RHF) =  -78.0382640535     A.U. after    7 cycles
 E2 =    -0.2790140125D+00 EUMP2 =    -0.78317278065970D+02
 SCF Done:  E(RHF) =  -78.0383283981     A.U. after    7 cycles
 E2 =    -0.2789535175D+00 EUMP2 =    -0.78317281915666D+02
 Optimization completed.
    -- Stationary point found.

                         Standard orientation:
 ---------------------------------------------------------------------
 Center     Atomic      Atomic             Coordinates (Angstroms)
 Number     Number       Type             X           Y           Z
 ---------------------------------------------------------------------
      1          6           0       -0.667675    0.000000    0.000000
      2          6           0        0.667675    0.000000    0.000000
      3          1           0       -1.233137    0.920904    0.000000
      4          1           0       -1.233137   -0.920904    0.000000
      5          1           0        1.233137    0.920904    0.000000
      6          1           0        1.233137   -0.920904    0.000000
 ---------------------------------------------------------------------

 The electronic state is 1-A.
 Alpha  occ. eigenvalues --  -11.22867 -11.22703  -1.02709  -0.78871  -0.63701
 Alpha  occ. eigenvalues --   -0.58071  -0.50252  -0.37007
 Alpha virt. eigenvalues --    0.17823   0.26495   0.29308   0.30878   0.39014
 Alpha virt. eigenvalues --    0.49082   0.66189   0.76172   0.77614   0.85077
 Alpha virt. eigenvalues --    0.88989   0.95224   1.08517   1.11918   1.17513

 Mulliken charges:
               1
     1  C   -0.256845
     2  C   -0.256845
     3  H    0.128422
     4  H    0.128422
     5  H    0.128422
     6  H    0.128423
 Sum of Mulliken charges =   0.00000

 Dipole moment (field-independent basis, Debye):
    X=              0.0000    Y=              0.0000    Z=              0.0000  Tot=              0.0000
 Quadrupole moment (field-independent basis, Debye-Ang):
   XX=            -12.0067   YY=            -12.2150   ZZ=            -15.4299
   XY=              0.0000   XZ=              0.0000   YZ=              0.0000

 Normal termination of Gaussian 09 at Tue Feb 21 18:34:27 2017.
