 Gaussian 09, Revision E.01,
 Gaussian 09:  ES64L-G09RevE.01 30-Nov-2015

 -----------------
 #n MP2/STO-3G Opt
 -----------------

 -----------------
 Ethene MP2 STO-3G
 -----------------
 Symbolic Z-matrix:
 Charge =  0 Multiplicity = 1

 SCF Done:  E(RHF) =  -77.0721063088     A.U. after    7 cycles
 E2 =    -0.1219037689D+00 EUMP2 =    -0.77194010077694D+02
 SCF Done:  E(RHF) =  -77.0695742510     A.U. after    7 cycles
 E2 =    -0.1257789662D+00 EUMP2 =    -0.77195353217184D+02
 SCF Done:  E(RHF) =  -77.0706157262     A.U. after    6 cycles
 E2 =    -0.1248138321D+00 EUMP2 =    -0.77195429558312D+02
 SCF Done:  E(RHF) =  -77.0707195358     A.U. after    5 cycles
 E2 =    -0.1247114696D+00 EUMP2 =    -0.77195431005428D+02
 Optimization completed.
    -- Stationary point found.

                         Standard orientation:
 ---------------------------------------------------------------------
 Center     Atomic      Atomic             Coordinates (Angstroms)
 Number     Number       Type             X           Y           Z
 ---------------------------------------------------------------------
      1          6           0        0.672490    0.000000    0.000000
      2          6           0       -0.672490    0.000000    0.000000
      3          1           0        1.250289   -0.934148   -0.000001
      4          1           0        1.250289    0.934148    0.000000
      5          1           0       -1.250289   -0.934148    0.000000
      6          1           0       -1.250289    0.934148    0.000000
 ---------------------------------------------------------------------

 The electronic state is 1-A.
 Alpha  occ. eigenvalues --  -11.02004 -11.01931  -0.97084  -0.73967  -0.59384
 Alpha  occ. eigenvalues --   -0.52659  -0.45729  -0.32033
 Alpha virt. eigenvalues --    0.31637   0.61630   0.67547   0.67845   0.92041
 Alpha virt. eigenvalues --    0.97273

 Mulliken charges:
               1
     1  C   -0.120004
     2  C   -0.120004
     3  H    0.060002
     4  H    0.060002
     5  H    0.060002
     6  H    0.060002
 Sum of Mulliken charges =   0.00000

 Dipole moment (field-independent basis, Debye):
    X=              0.0000    Y=              0.0000    Z=              0.0000  Tot=              0.0000
 Quadrupole moment (field-independent basis, Debye-Ang):
   XX=            -11.9176   YY=            -11.8068   ZZ=            -13.5015
   XY=              0.0000   XZ=              0.0000   YZ=              0.0000

 Normal termination of Gaussian 09 at Tue Feb 21 18:36:42 2017.
