 Gaussian 09, Revision E.01,
 Gaussian 09:  ES64L-G09RevE.01 30-Nov-2015

 ----------------
 #n MP2/3-21G Opt
 ----------------

 ----------------
 Ethene MP2 3-21G
 ----------------
 Symbolic Z-matrix:
 Charge =  0 Multiplicity = 1

 SCF Done:  E(RHF) =  -77.6002110995     A.U. after    8 cycles
 E2 =    -0.1806025914D+00 EUMP2 =    -0.77780813690850D+02
 SCF Done:  E(RHF) =  -77.5995245524     A.U. after    8 cycles
 E2 =    -0.1817809492D+00 EUMP2 =    -0.77781305501620D+02
 SCF Done:  E(RHF) =  -77.5996925548     A.U. after    7 cycles
 E2 =    -0.1816211256D+00 EUMP2 =    -0.77781313680436D+02
 Optimization completed.
    -- Stationary point found.

                         Standard orientation:
 ---------------------------------------------------------------------
 Center     Atomic      Atomic             Coordinates (Angstroms)
 Number     Number       Type             X           Y           Z
 ---------------------------------------------------------------------
      1          6           0       -0.670576    0.000000    0.000000
      2          6           0        0.670576    0.000000    0.000000
      3          1           0       -1.243406    0.922172    0.000000
      4          1           0       -1.243406   -0.922172    0.000001
      5          1           0        1.243406    0.922172    0.000001
      6          1           0        1.243406   -0.922172    0.000001
 ---------------------------------------------------------------------

 The electronic state is 1-A.
 Alpha  occ. eigenvalues --  -11.17342 -11.17340  -1.02840  -0.78704  -0.63978
 Alpha  occ. eigenvalues --   -0.58456  -0.49949  -0.37400
 Alpha virt. eigenvalues --    0.17985   0.29531   0.31010   0.33661   0.43506
 Alpha virt. eigenvalues --    0.53600   0.88788   0.92613   0.99356   1.07506
 Alpha virt. eigenvalues --    1.09576   1.12536   1.31213   1.35152   1.39095

 Mulliken charges:
               1
     1  C   -0.424403
     2  C   -0.424403
     3  H    0.212201
     4  H    0.212201
     5  H    0.212201
     6  H    0.212201
 Sum of Mulliken charges =   0.00000

 Dipole moment (field-independent basis, Debye):
    X=              0.0000    Y=              0.0000    Z=              0.0000  Tot=              0.0000
 Quadrupole moment (field-independent basis, Debye-Ang):
   XX=            -12.0714   YY=            -12.3477   ZZ=            -15.7683
   XY=              0.0000   XZ=              0.0000   YZ=              0.0000

 Normal termination of Gaussian 09 at Tue Feb 21 18:41:17 2017.
