 Gaussian 09, Revision A.02,
 Gaussian 09:  EM64L-G09RevA.02 11-Jun-2009

 --------------------------------------
 # opt M062X/6-311+G* geom=connectivity
 --------------------------------------

 -------------------
 Title Card Required
 -------------------
 Symbolic Z-matrix:
 Charge =  0 Multiplicity = 2

 SCF Done:  E(UM062X) =  -1826.96385507     A.U. after   27 cycles
 SCF Done:  E(UM062X) =  -1826.98177469     A.U. after   23 cycles
 SCF Done:  E(UM062X) =  -1826.99044265     A.U. after   22 cycles
 SCF Done:  E(UM062X) =  -1826.99279937     A.U. after   20 cycles
 SCF Done:  E(UM062X) =  -1826.99439726     A.U. after   19 cycles
 SCF Done:  E(UM062X) =  -1826.99493671     A.U. after   18 cycles
 SCF Done:  E(UM062X) =  -1826.99555998     A.U. after   19 cycles
 SCF Done:  E(UM062X) =  -1826.99591472     A.U. after   18 cycles
 SCF Done:  E(UM062X) =  -1826.99662334     A.U. after   22 cycles
 SCF Done:  E(UM062X) =  -1826.99693013     A.U. after   20 cycles
 SCF Done:  E(UM062X) =  -1826.99709631     A.U. after   18 cycles
 SCF Done:  E(UM062X) =  -1826.99714855     A.U. after   18 cycles
 SCF Done:  E(UM062X) =  -1826.99716143     A.U. after   15 cycles
 SCF Done:  E(UM062X) =  -1826.99716402     A.U. after   21 cycles
 SCF Done:  E(UM062X) =  -1826.99716552     A.U. after   23 cycles
 SCF Done:  E(UM062X) =  -1826.99716590     A.U. after   13 cycles
 Optimization completed.
    -- Stationary point found.

                         Standard orientation:
 ---------------------------------------------------------------------
 Center     Atomic      Atomic             Coordinates (Angstroms)
 Number     Number       Type             X           Y           Z
 ---------------------------------------------------------------------
      1          7           0        0.000086    0.213427    0.000835
      2         16           0       -1.425081   -0.681985   -0.280665
      3         16           0        1.425026   -0.681952    0.280610
      4          8           0       -1.489204   -0.907657   -1.695426
      5          8           0       -1.587167   -1.709618    0.704549
      6          8           0        1.489928   -0.908672    1.695208
      7          8           0        1.586647   -1.709040   -0.705301
      8          6           0       -2.612056    0.694569    0.142165
      9          6           0        2.612006    0.694571   -0.142055
     10          9           0       -3.831352    0.216829   -0.007205
     11          9           0       -2.418454    1.064731    1.390854
     12          9           0       -2.421374    1.711393   -0.669824
     13          9           0        2.422747    1.710629    0.671287
     14          9           0        2.417006    1.066205   -1.390113
     15          9           0        3.831312    0.216219    0.005237
 ---------------------------------------------------------------------

 The electronic state is 2-A.
 Alpha  occ. eigenvalues --  -90.19435 -90.19431 -25.34662 -25.34659 -25.34634
 Alpha  occ. eigenvalues --  -25.34631 -25.34595 -25.34591 -19.70695 -19.70690
 Alpha  occ. eigenvalues --  -19.70523 -19.70518 -14.90471 -10.88046 -10.88043
 Alpha  occ. eigenvalues --   -8.53659  -8.53655  -6.45876  -6.45873  -6.45797
 Alpha  occ. eigenvalues --   -6.45794  -6.45721  -6.45717  -1.54713  -1.54705
 Alpha  occ. eigenvalues --   -1.45141  -1.45138  -1.45121  -1.45117  -1.34441
 Alpha  occ. eigenvalues --   -1.32723  -1.22501  -1.22311  -1.10865  -0.93440
 Alpha  occ. eigenvalues --   -0.90600  -0.84776  -0.80932  -0.77184  -0.76674
 Alpha  occ. eigenvalues --   -0.76669  -0.76616  -0.74726  -0.70620  -0.67365
 Alpha  occ. eigenvalues --   -0.64746  -0.64277  -0.64046  -0.63641  -0.62947
 Alpha  occ. eigenvalues --   -0.62727  -0.61366  -0.60697  -0.60306  -0.60055
 Alpha  occ. eigenvalues --   -0.59881  -0.59679  -0.58281  -0.57855  -0.57844
 Alpha  occ. eigenvalues --   -0.53840  -0.50403  -0.48920  -0.47817  -0.47543
 Alpha  occ. eigenvalues --   -0.46362  -0.45644  -0.44064  -0.43511
 Alpha virt. eigenvalues --   -0.02671  -0.00130   0.01192   0.01459   0.02072
 Alpha virt. eigenvalues --    0.02666   0.03804   0.03880   0.04083   0.04503
 Alpha virt. eigenvalues --    0.06225   0.06497   0.06994   0.07566   0.07893

  Beta  occ. eigenvalues --  -90.19474 -90.19470 -25.34663 -25.34660 -25.34629
  Beta  occ. eigenvalues --  -25.34626 -25.34595 -25.34591 -19.70507 -19.70502
  Beta  occ. eigenvalues --  -19.70431 -19.70426 -14.89498 -10.88053 -10.88049
  Beta  occ. eigenvalues --   -8.53675  -8.53671  -6.45943  -6.45939  -6.45831
  Beta  occ. eigenvalues --   -6.45828  -6.45738  -6.45735  -1.54713  -1.54706
  Beta  occ. eigenvalues --   -1.45140  -1.45136  -1.45121  -1.45117  -1.33898
  Beta  occ. eigenvalues --   -1.32425  -1.22047  -1.21865  -1.06691  -0.93188
  Beta  occ. eigenvalues --   -0.90415  -0.84475  -0.80787  -0.77113  -0.76674
  Beta  occ. eigenvalues --   -0.76670  -0.76605  -0.74311  -0.69958  -0.66919
  Beta  occ. eigenvalues --   -0.64178  -0.64152  -0.63981  -0.63585  -0.62587
  Beta  occ. eigenvalues --   -0.61511  -0.61081  -0.60639  -0.60269  -0.59886
  Beta  occ. eigenvalues --   -0.59732  -0.59608  -0.57845  -0.57838  -0.56588
  Beta  occ. eigenvalues --   -0.49824  -0.48512  -0.48006  -0.46792  -0.46473
  Beta  occ. eigenvalues --   -0.45671  -0.43861  -0.42997
  Beta virt. eigenvalues --   -0.19993  -0.02109   0.00138   0.01259   0.01514
  Beta virt. eigenvalues --    0.02170   0.02938   0.03863   0.04136   0.04223
  Beta virt. eigenvalues --    0.04647   0.06291   0.06608   0.07044   0.07795

 Mulliken atomic charges:
              1
     1  N   -0.418829
     2  S    0.219711
     3  S    0.219678
     4  O    0.005122
     5  O    0.007884
     6  O    0.005240
     7  O    0.007754
     8  C    0.041423
     9  C    0.041357
    10  F   -0.044788
    11  F   -0.020705
    12  F    0.000895
    13  F    0.000807
    14  F   -0.020769
    15  F   -0.044780
 Sum of Mulliken atomic charges =   0.00000

 Dipole moment (field-independent basis, Debye):
    X=             -0.0026    Y=              2.6982    Z=              0.0002  Tot=              2.6982
 Quadrupole moment (field-independent basis, Debye-Ang):
   XX=            -90.6450   YY=           -100.5661   ZZ=           -102.8135
   XY=              0.0013   XZ=             -1.5331   YZ=              0.0006

 Normal termination of Gaussian 09 at Thu Mar  9 12:47:19 2017.
 Normal termination of Gaussian 09 at Thu Mar  9 12:43:28 2017.
