 Gaussian 09, Revision E.01,
 Gaussian 09:  ES64L-G09RevE.01 30-Nov-2015

 -----------------
 #n MP2/STO-3G Opt
 -----------------

 -----------------
 Ethyne MP2 STO-3G
 -----------------
 Symbolic Z-matrix:
 Charge =  0 Multiplicity = 1

 SCF Done:  E(RHF) =  -75.8523559165     A.U. after    7 cycles
 E2 =    -0.1503292066D+00 EUMP2 =    -0.76002685123115D+02
 SCF Done:  E(RHF) =  -75.8484040610     A.U. after    6 cycles
 E2 =    -0.1554201559D+00 EUMP2 =    -0.76003824216873D+02
 SCF Done:  E(RHF) =  -75.8490873694     A.U. after    5 cycles
 E2 =    -0.1548050730D+00 EUMP2 =    -0.76003892442371D+02
 SCF Done:  E(RHF) =  -75.8491568520     A.U. after    4 cycles
 E2 =    -0.1547357645D+00 EUMP2 =    -0.76003892616549D+02
 Optimization completed.
    -- Stationary point found.

                         Standard orientation:
 ---------------------------------------------------------------------
 Center     Atomic      Atomic             Coordinates (Angstroms)
 Number     Number       Type             X           Y           Z
 ---------------------------------------------------------------------
      1          6           0        0.000000    0.000000   -0.609146
      2          6           0        0.000000    0.000000    0.609146
      3          1           0        0.000000    0.000000   -1.689849
      4          1           0        0.000000    0.000000    1.689849
 ---------------------------------------------------------------------

 The electronic state is 1-SGG.
 Alpha  occ. eigenvalues --  -10.99742 -10.99482  -0.94478  -0.69935  -0.59903
 Alpha  occ. eigenvalues --   -0.34101  -0.34101
 Alpha virt. eigenvalues --    0.39125   0.39125   0.53388   0.71098   1.43553

 Mulliken charges:
               1
     1  C   -0.108195
     2  C   -0.108195
     3  H    0.108195
     4  H    0.108195
 Sum of Mulliken charges =   0.00000

 Dipole moment (field-independent basis, Debye):
    X=              0.0000    Y=              0.0000    Z=              0.0000  Tot=              0.0000
 Quadrupole moment (field-independent basis, Debye-Ang):
   XX=            -11.7704   YY=            -11.7704   ZZ=             -7.4342
   XY=              0.0000   XZ=              0.0000   YZ=              0.0000

 Normal termination of Gaussian 09 at Tue Feb 21 19:29:51 2017.
