 Gaussian 09, Revision E.01,
 Gaussian 09:  ES64L-G09RevE.01 30-Nov-2015

 ---------------------
 #n MP2/6-31G(d,p) Opt
 ---------------------

 -----------------
 Ethyne MP2 6-31dp
 -----------------
 Symbolic Z-matrix:
 Charge =  0 Multiplicity = 1

 SCF Done:  E(RHF) =  -76.8209913400     A.U. after    9 cycles
 E2 =    -0.2603226427D+00 EUMP2 =    -0.77081313982771D+02
 SCF Done:  E(RHF) =  -76.8193625812     A.U. after    7 cycles
 E2 =    -0.2623045398D+00 EUMP2 =    -0.77081667120962D+02
 SCF Done:  E(RHF) =  -76.8194540273     A.U. after    6 cycles
 E2 =    -0.2622139555D+00 EUMP2 =    -0.77081667982787D+02
 Optimization completed.
    -- Stationary point found.

                         Standard orientation:
 ---------------------------------------------------------------------
 Center     Atomic      Atomic             Coordinates (Angstroms)
 Number     Number       Type             X           Y           Z
 ---------------------------------------------------------------------
      1          6           0        0.000000    0.000000   -0.609277
      2          6           0        0.000000    0.000000    0.609277
      3          1           0        0.000000    0.000000   -1.671726
      4          1           0        0.000000    0.000000    1.671726
 ---------------------------------------------------------------------

 The electronic state is 1-SGG.
 Alpha  occ. eigenvalues --  -11.24403 -11.24069  -1.01495  -0.76164  -0.66960
 Alpha  occ. eigenvalues --   -0.39682  -0.39682
 Alpha virt. eigenvalues --    0.21021   0.21021   0.24756   0.29588   0.60834
 Alpha virt. eigenvalues --    0.64656   0.74991   0.74991   0.90337   0.90337
 Alpha virt. eigenvalues --    0.93882   1.03036   1.27392   1.51068   1.64425

 Mulliken charges:
               1
     1  C   -0.237712
     2  C   -0.237712
     3  H    0.237712
     4  H    0.237712
 Sum of Mulliken charges =   0.00000

 Dipole moment (field-independent basis, Debye):
    X=              0.0000    Y=              0.0000    Z=              0.0000  Tot=              0.0000
 Quadrupole moment (field-independent basis, Debye-Ang):
   XX=            -13.4576   YY=            -13.4576   ZZ=             -6.4734
   XY=              0.0000   XZ=              0.0000   YZ=              0.0000

 Normal termination of Gaussian 09 at Tue Feb 21 19:29:53 2017.
