 Gaussian 09, Revision E.01,
 Gaussian 09:  ES64L-G09RevE.01 30-Nov-2015

 ----------------
 #n MP2/3-21G Opt
 ----------------

 ----------------
 Ethyne MP2 3-21G
 ----------------
 Symbolic Z-matrix:
 Charge =  0 Multiplicity = 1

 SCF Done:  E(RHF) =  -76.3951559510     A.U. after    8 cycles
 E2 =    -0.1835573086D+00 EUMP2 =    -0.76578713259561D+02
 SCF Done:  E(RHF) =  -76.3930601542     A.U. after    7 cycles
 E2 =    -0.1861960806D+00 EUMP2 =    -0.76579256234749D+02
 SCF Done:  E(RHF) =  -76.3931362257     A.U. after    6 cycles
 E2 =    -0.1861204542D+00 EUMP2 =    -0.76579256679866D+02
 Optimization completed.
    -- Stationary point found.

                         Standard orientation:
 ---------------------------------------------------------------------
 Center     Atomic      Atomic             Coordinates (Angstroms)
 Number     Number       Type             X           Y           Z
 ---------------------------------------------------------------------
      1          6           0        0.000000    0.000000   -0.610844
      2          6           0        0.000000    0.000000    0.610844
      3          1           0        0.000000    0.000000   -1.675132
      4          1           0        0.000000    0.000000    1.675132
 ---------------------------------------------------------------------

 The electronic state is 1-SGG.
 Alpha  occ. eigenvalues --  -11.19122 -11.18969  -1.02419  -0.75824  -0.67605
 Alpha  occ. eigenvalues --   -0.40398  -0.40398
 Alpha virt. eigenvalues --    0.21498   0.21498   0.27183   0.32705   0.67117
 Alpha virt. eigenvalues --    0.93395   0.96442   0.96442   1.08664   1.08664
 Alpha virt. eigenvalues --    1.26152   1.31584   1.52259   1.61234   2.25752

 Mulliken charges:
               1
     1  C   -0.337561
     2  C   -0.337561
     3  H    0.337561
     4  H    0.337561
 Sum of Mulliken charges =   0.00000

 Dipole moment (field-independent basis, Debye):
    X=              0.0000    Y=              0.0000    Z=              0.0000  Tot=              0.0000
 Quadrupole moment (field-independent basis, Debye-Ang):
   XX=            -13.7394   YY=            -13.7394   ZZ=             -6.7327
   XY=              0.0000   XZ=              0.0000   YZ=              0.0000

 Normal termination of Gaussian 09 at Tue Feb 21 19:35:19 2017.
