 Gaussian 09, Revision A.02,
 Gaussian 09:  EM64L-G09RevA.02 11-Jun-2009

 --------------------------------------
 # opt M062X/6-311+G* geom=connectivity
 --------------------------------------

 -------------------
 Title Card Required
 -------------------
 Symbolic Z-matrix:
 Charge =  0 Multiplicity = 1

 SCF Done:  E(RM062X) =  -883.150037850     A.U. after   17 cycles
 SCF Done:  E(RM062X) =  -883.200784235     A.U. after   16 cycles
 SCF Done:  E(RM062X) =  -883.272078650     A.U. after   16 cycles
 SCF Done:  E(RM062X) =  -883.300856865     A.U. after   16 cycles
 SCF Done:  E(RM062X) =  -883.340738086     A.U. after   14 cycles
 SCF Done:  E(RM062X) =  -883.384436025     A.U. after   17 cycles
 SCF Done:  E(RM062X) =  -883.406210718     A.U. after   15 cycles
 SCF Done:  E(RM062X) =  -883.424250802     A.U. after   15 cycles
 SCF Done:  E(RM062X) =  -883.437917785     A.U. after   14 cycles
 SCF Done:  E(RM062X) =  -883.453816564     A.U. after   15 cycles
 SCF Done:  E(RM062X) =  -883.483831319     A.U. after   14 cycles
 SCF Done:  E(RM062X) =  -883.483902228     A.U. after   12 cycles
 SCF Done:  E(RM062X) =  -883.483918486     A.U. after   11 cycles
 SCF Done:  E(RM062X) =  -883.483935058     A.U. after   11 cycles
 SCF Done:  E(RM062X) =  -883.483940596     A.U. after   11 cycles
 SCF Done:  E(RM062X) =  -883.483941492     A.U. after   11 cycles
 SCF Done:  E(RM062X) =  -883.483943827     A.U. after   10 cycles
 SCF Done:  E(RM062X) =  -883.483947730     A.U. after   10 cycles
 SCF Done:  E(RM062X) =  -883.483947713     A.U. after   10 cycles
 SCF Done:  E(RM062X) =  -883.483947681     A.U. after    9 cycles
 Optimization completed.
    -- Stationary point found.

                         Standard orientation:
 ---------------------------------------------------------------------
 Center     Atomic      Atomic             Coordinates (Angstroms)
 Number     Number       Type             X           Y           Z
 ---------------------------------------------------------------------
      1          6           0        0.332745   -1.376971   -0.740790
      2          6           0        1.261478   -0.176789    0.847640
      3          6           0        1.661834   -1.633109   -0.746464
      4          1           0        1.395996    0.497680    1.674288
      5          1           0        2.256507   -2.266458   -1.382236
      6          1           0       -0.453760   -1.755813   -1.368381
      7          6           0       -1.117319    0.306794    0.515769
      8          1           0       -1.207645    0.467050    1.592710
      9          1           0       -0.920431    1.273892    0.041346
     10          6           0       -2.371642   -0.354803   -0.028199
     11          1           0       -2.310903   -0.428184   -1.119096
     12          1           0       -2.460423   -1.375040    0.362914
     13          6           0       -3.616744    0.449471    0.342848
     14          1           0       -3.695644    0.514343    1.433247
     15          1           0       -3.504621    1.475697   -0.021021
     16          6           0       -4.888763   -0.166730   -0.230444
     17          1           0       -5.033656   -1.185312    0.138970
     18          1           0       -5.770686    0.414768    0.043406
     19          1           0       -4.846168   -0.211277   -1.321571
     20          6           0        3.639956   -0.623612    0.455108
     21          1           0        4.217451   -1.481155    0.115294
     22          1           0        3.869068    0.271761   -0.126302
     23          1           0        3.850065   -0.441673    1.507521
     24          7           0        0.089692   -0.500558    0.301425
     25          7           0        2.222283   -0.913789    0.291267
     26         17           0        1.707162    2.093214   -0.483103
 ---------------------------------------------------------------------

 The electronic state is 1-A.
 Alpha  occ. eigenvalues -- -102.51523 -14.84494 -14.84269 -10.65718 -10.60927
 Alpha  occ. eigenvalues --  -10.60829 -10.59980 -10.59751 -10.56120 -10.55154
 Alpha  occ. eigenvalues --  -10.53749  -9.65710  -7.37844  -7.37790  -7.37779
 Alpha  occ. eigenvalues --   -1.20113  -1.07701  -0.93400  -0.90818  -0.86958
 Alpha  occ. eigenvalues --   -0.82784  -0.77210  -0.74961  -0.72805  -0.70876
 Alpha  occ. eigenvalues --   -0.68395  -0.65093  -0.60118  -0.57289  -0.56780
 Alpha  occ. eigenvalues --   -0.55164  -0.54933  -0.53419  -0.53127  -0.50942
 Alpha  occ. eigenvalues --   -0.49321  -0.48750  -0.46873  -0.44646  -0.42261
 Alpha  occ. eigenvalues --   -0.41718  -0.40999  -0.37446  -0.33944  -0.25627
 Alpha  occ. eigenvalues --   -0.25439  -0.24851
 Alpha virt. eigenvalues --   -0.00673   0.00519   0.00836   0.01723   0.02318
 Alpha virt. eigenvalues --    0.02625   0.02867   0.03156   0.04394   0.04658
 Alpha virt. eigenvalues --    0.05127   0.06083   0.06288   0.06732   0.07537

 Mulliken atomic charges:
              1
     1  C    0.051703
     2  C   -0.121272
     3  C   -0.692069
     4  H    0.321080
     5  H    0.274668
     6  H    0.281554
     7  C   -0.653632
     8  H    0.254023
     9  H    0.360386
    10  C   -0.444790
    11  H    0.251909
    12  H    0.268159
    13  C   -0.378754
    14  H    0.257588
    15  H    0.274561
    16  C   -1.027893
    17  H    0.256791
    18  H    0.271896
    19  H    0.259133
    20  C   -0.731439
    21  H    0.241668
    22  H    0.350103
    23  H    0.260438
    24  N    0.275853
    25  N    0.263374
    26  Cl  -0.725039
 Sum of Mulliken atomic charges =   0.00000

 Dipole moment (field-independent basis, Debye):
    X=             -2.3447    Y=             -8.2443    Z=              2.6315  Tot=              8.9661
 Quadrupole moment (field-independent basis, Debye-Ang):
   XX=            -64.4299   YY=            -91.6635   ZZ=            -73.9867
   XY=            -17.4942   XZ=              4.9478   YZ=              8.1882

 Normal termination of Gaussian 09 at Wed Mar  8 18:15:04 2017.
