 Gaussian 09, Revision E.01,
 Gaussian 09:  ES64L-G09RevE.01 30-Nov-2015

 ---------------------
 #n MP2/6-31G(d,p) Opt
 ---------------------

 -----
 Title
 -----
 Symbolic Z-matrix:
 Charge =  0 Multiplicity = 1

 SCF Done:  E(RHF) =  -78.0383398179     A.U. after    9 cycles
 E2 =    -0.2786281212D+00 EUMP2 =    -0.78316967939059D+02
 SCF Done:  E(RHF) =  -78.0382640692     A.U. after    7 cycles
 E2 =    -0.2790139983D+00 EUMP2 =    -0.78317278067572D+02
 SCF Done:  E(RHF) =  -78.0383283878     A.U. after    7 cycles
 E2 =    -0.2789535275D+00 EUMP2 =    -0.78317281915382D+02
 Optimization completed.
    -- Stationary point found.

                         Standard orientation:
 ---------------------------------------------------------------------
 Center     Atomic      Atomic             Coordinates (Angstroms)
 Number     Number       Type             X           Y           Z
 ---------------------------------------------------------------------
      1          6           0        0.667675    0.000000    0.000000
      2          6           0       -0.667675    0.000000    0.000000
      3          1           0        1.233137   -0.920904    0.000000
      4          1           0        1.233136    0.920904    0.000000
      5          1           0       -1.233137   -0.920904    0.000000
      6          1           0       -1.233137    0.920904    0.000000
 ---------------------------------------------------------------------

 The electronic state is 1-A.
 Alpha  occ. eigenvalues --  -11.22867 -11.22703  -1.02709  -0.78871  -0.63701
 Alpha  occ. eigenvalues --   -0.58071  -0.50252  -0.37007
 Alpha virt. eigenvalues --    0.17823   0.26495   0.29308   0.30878   0.39014
 Alpha virt. eigenvalues --    0.49082   0.66189   0.76172   0.77614   0.85077
 Alpha virt. eigenvalues --    0.88989   0.95224   1.08518   1.11918   1.17513

 Mulliken charges:
               1
     1  C   -0.256845
     2  C   -0.256845
     3  H    0.128423
     4  H    0.128423
     5  H    0.128423
     6  H    0.128422
 Sum of Mulliken charges =   0.00000

 Dipole moment (field-independent basis, Debye):
    X=              0.0000    Y=              0.0000    Z=              0.0000  Tot=              0.0000
 Quadrupole moment (field-independent basis, Debye-Ang):
   XX=            -12.0067   YY=            -12.2150   ZZ=            -15.4299
   XY=              0.0000   XZ=              0.0000   YZ=              0.0000

 Normal termination of Gaussian 09 at Fri Feb 24 00:14:05 2017.
