 Gaussian 09, Revision E.01,
 Gaussian 09:  ES64L-G09RevE.01 30-Nov-2015

 -----------------------
 #n B3LYP/6-31G(d,p) Opt
 -----------------------

 -----
 Title
 -----
 Symbolic Z-matrix:
 Charge =  0 Multiplicity = 1

 SCF Done:  E(RB3LYP) =  -78.5936568122     A.U. after   10 cycles
 SCF Done:  E(RB3LYP) =  -78.5938002866     A.U. after    9 cycles
 SCF Done:  E(RB3LYP) =  -78.5938071468     A.U. after    6 cycles
 SCF Done:  E(RB3LYP) =  -78.5938076152     A.U. after    6 cycles
 Optimization completed.
    -- Stationary point found.

                         Standard orientation:
 ---------------------------------------------------------------------
 Center     Atomic      Atomic             Coordinates (Angstroms)
 Number     Number       Type             X           Y           Z
 ---------------------------------------------------------------------
      1          6           0        0.665080    0.000000    0.000000
      2          6           0       -0.665080    0.000000    0.000000
      3          1           0        1.238036   -0.923341    0.000000
      4          1           0        1.238036    0.923341    0.000000
      5          1           0       -1.238036   -0.923341    0.000000
      6          1           0       -1.238036    0.923341    0.000000
 ---------------------------------------------------------------------

 The electronic state is 1-A.
 Alpha  occ. eigenvalues --  -10.18441 -10.18351  -0.75517  -0.57654  -0.46398
 Alpha  occ. eigenvalues --   -0.41579  -0.35182  -0.26745
 Alpha virt. eigenvalues --    0.01740   0.12237   0.14055   0.15812   0.24447
 Alpha virt. eigenvalues --    0.33134   0.47289   0.54826   0.56352   0.63742
 Alpha virt. eigenvalues --    0.65374   0.69914   0.83101   0.84453   0.91318

 Mulliken charges:
               1
     1  C   -0.202422
     2  C   -0.202422
     3  H    0.101211
     4  H    0.101211
     5  H    0.101211
     6  H    0.101211
 Sum of Mulliken charges =   0.00000

 Dipole moment (field-independent basis, Debye):
    X=              0.0000    Y=              0.0000    Z=              0.0000  Tot=              0.0000
 Quadrupole moment (field-independent basis, Debye-Ang):
   XX=            -12.0272   YY=            -12.1398   ZZ=            -14.9823
   XY=              0.0000   XZ=              0.0000   YZ=              0.0000

 Normal termination of Gaussian 09 at Fri Feb 24 00:12:17 2017.
