 Gaussian 09, Revision E.01,
 Gaussian 09:  ES64L-G09RevE.01 30-Nov-2015

 -----------------------
 #n M062X/6-31G(d,p) Opt
 -----------------------

 -----
 Title
 -----
 Symbolic Z-matrix:
 Charge =  0 Multiplicity = 1

 SCF Done:  E(RM062X) =  -78.5418707615     A.U. after   12 cycles
 SCF Done:  E(RM062X) =  -78.5419424290     A.U. after    7 cycles
 SCF Done:  E(RM062X) =  -78.5419468181     A.U. after    6 cycles
 Optimization completed.
    -- Stationary point found.

                         Standard orientation:
 ---------------------------------------------------------------------
 Center     Atomic      Atomic             Coordinates (Angstroms)
 Number     Number       Type             X           Y           Z
 ---------------------------------------------------------------------
      1          6           0        0.663437    0.000000    0.000000
      2          6           0       -0.663437    0.000000    0.000000
      3          1           0        1.232908   -0.924019    0.000000
      4          1           0        1.232908    0.924019    0.000000
      5          1           0       -1.232909   -0.924018    0.000000
      6          1           0       -1.232909    0.924019    0.000000
 ---------------------------------------------------------------------

 The electronic state is 1-A.
 Alpha  occ. eigenvalues --  -10.54236 -10.54121  -0.85194  -0.65584  -0.53471
 Alpha  occ. eigenvalues --   -0.47695  -0.41078  -0.32559
 Alpha virt. eigenvalues --    0.06258   0.16993   0.18975   0.21001   0.29725
 Alpha virt. eigenvalues --    0.37539   0.52019   0.60481   0.61132   0.69894
 Alpha virt. eigenvalues --    0.69979   0.76296   0.89486   0.91927   0.98618

 Mulliken charges:
               1
     1  C   -0.246461
     2  C   -0.246461
     3  H    0.123231
     4  H    0.123231
     5  H    0.123231
     6  H    0.123231
 Sum of Mulliken charges =   0.00000

 Dipole moment (field-independent basis, Debye):
    X=              0.0000    Y=              0.0000    Z=              0.0000  Tot=              0.0000
 Quadrupole moment (field-independent basis, Debye-Ang):
   XX=            -11.9817   YY=            -12.0870   ZZ=            -15.1208
   XY=              0.0000   XZ=              0.0000   YZ=              0.0000

 Normal termination of Gaussian 09 at Fri Feb 24 00:15:50 2017.
