 Gaussian 09, Revision E.01,
 Gaussian 09:  ES64L-G09RevE.01 30-Nov-2015

 -----------------------
 #n B3LYP/6-31G(d,p) Opt
 -----------------------

 ------------------
 CH3_B3LYP/6-31G(d)
 ------------------
 Symbolic Z-matrix:
 Charge =  0 Multiplicity = 1

 SCF Done:  E(RB3LYP) =  -79.8384829534     A.U. after    9 cycles
 SCF Done:  E(RB3LYP) =  -79.8387160285     A.U. after    9 cycles
 SCF Done:  E(RB3LYP) =  -79.8387404634     A.U. after    6 cycles
 Optimization completed.
    -- Stationary point found.

                         Standard orientation:
 ---------------------------------------------------------------------
 Center     Atomic      Atomic             Coordinates (Angstroms)
 Number     Number       Type             X           Y           Z
 ---------------------------------------------------------------------
      1          6           0       -0.409117    0.646732    0.000014
      2          6           0        0.409117   -0.646732   -0.000014
      3          1           0       -1.348995    0.524444    0.548589
      4          1           0       -0.660665    0.959856   -1.018799
      5          1           0        0.142301    1.467805    0.470209
      6          1           0       -0.142301   -1.467805   -0.470209
      7          1           0        0.660665   -0.959856    1.018799
      8          1           0        1.348995   -0.524444   -0.548589
 ---------------------------------------------------------------------

 The electronic state is 1-AG.
 Alpha  occ. eigenvalues --  -10.17265 -10.17244  -0.74758  -0.61194  -0.42940
 Alpha  occ. eigenvalues --   -0.42939  -0.36303  -0.33922  -0.33920
 Alpha virt. eigenvalues --    0.10498   0.15612   0.16395   0.16396   0.19004
 Alpha virt. eigenvalues --    0.19006   0.24186   0.50815   0.53947   0.53947
 Alpha virt. eigenvalues --    0.61917   0.61919   0.66588   0.86649   0.86650

 Mulliken charges:
               1
     1  C   -0.314671
     2  C   -0.314671
     3  H    0.104893
     4  H    0.104887
     5  H    0.104891
     6  H    0.104891
     7  H    0.104887
     8  H    0.104893
 Sum of Mulliken charges =   0.00000

 Dipole moment (field-independent basis, Debye):
    X=              0.0000    Y=              0.0000    Z=              0.0000  Tot=              0.0000
 Quadrupole moment (field-independent basis, Debye-Ang):
   XX=            -14.8543   YY=            -15.0482   ZZ=            -14.7250
   XY=              0.2046   XZ=             -0.0002   YZ=             -0.0001

 Normal termination of Gaussian 09 at Thu Feb 23 18:24:50 2017.
