 Gaussian 09, Revision E.01,
 Gaussian 09:  ES64L-G09RevE.01 30-Nov-2015

 ----------------------
 #n CCSD/6-31G(d,p) Opt
 ----------------------

 -----------------
 CH3_CCSD/6-31G(d)
 -----------------
 Symbolic Z-matrix:
 Charge =  0 Multiplicity = 1

 SCF Done:  E(RHF) =  -79.2378304586     A.U. after    9 cycles
 E2 =    -0.3053091212D+00 EUMP2 =    -0.79543139579819D+02
 SCF Done:  E(RHF) =  -79.2381397953     A.U. after    8 cycles
 E2 =    -0.3052217308D+00 EUMP2 =    -0.79543361526080D+02
 SCF Done:  E(RHF) =  -79.2381447440     A.U. after    7 cycles
 E2 =    -0.3052400342D+00 EUMP2 =    -0.79543384778255D+02
 Optimization completed.
    -- Stationary point found.

                         Standard orientation:
 ---------------------------------------------------------------------
 Center     Atomic      Atomic             Coordinates (Angstroms)
 Number     Number       Type             X           Y           Z
 ---------------------------------------------------------------------
      1          6           0       -0.408080    0.645123    0.000000
      2          6           0        0.408080   -0.645123    0.000000
      3          1           0       -1.342996    0.519457    0.547044
      4          1           0       -0.656612    0.953638   -1.015956
      5          1           0        0.144140    1.460162    0.468912
      6          1           0       -0.144140   -1.460162   -0.468912
      7          1           0        0.656612   -0.953638    1.015956
      8          1           0        1.342996   -0.519457   -0.547044
 ---------------------------------------------------------------------

 The electronic state is 1-AG.
 Alpha  occ. eigenvalues --  -11.21264 -11.21205  -1.01760  -0.84119  -0.59568
 Alpha  occ. eigenvalues --   -0.59568  -0.50819  -0.48534  -0.48534
 Alpha virt. eigenvalues --    0.24205   0.30184   0.31641   0.31641   0.33740
 Alpha virt. eigenvalues --    0.33740   0.41303   0.70389   0.73789   0.73789
 Alpha virt. eigenvalues --    0.83188   0.83188   0.93686   1.12762   1.12762

 Mulliken charges:
               1
     1  C   -0.333476
     2  C   -0.333476
     3  H    0.111158
     4  H    0.111159
     5  H    0.111159
     6  H    0.111159
     7  H    0.111159
     8  H    0.111158
 Sum of Mulliken charges =   0.00000

 Dipole moment (field-independent basis, Debye):
    X=              0.0000    Y=              0.0000    Z=              0.0000  Tot=              0.0000
 Quadrupole moment (field-independent basis, Debye-Ang):
   XX=            -15.0978   YY=            -15.3577   ZZ=            -14.9245
   XY=              0.2740   XZ=              0.0000   YZ=              0.0000

 Normal termination of Gaussian 09 at Thu Feb 23 18:28:19 2017.
