 Gaussian 09, Revision E.01,
 Gaussian 09:  ES64L-G09RevE.01 30-Nov-2015

 ---------------------
 #n MP2/6-31G(d,p) Opt
 ---------------------

 ----------------
 CH3_MP2/6-31G(d)
 ----------------
 Symbolic Z-matrix:
 Charge =  0 Multiplicity = 1

 SCF Done:  E(RHF) =  -79.2378304586     A.U. after    9 cycles
 E2 =    -0.3053091212D+00 EUMP2 =    -0.79543139579819D+02
 SCF Done:  E(RHF) =  -79.2381963732     A.U. after    8 cycles
 E2 =    -0.3051897872D+00 EUMP2 =    -0.79543386160472D+02
 SCF Done:  E(RHF) =  -79.2381922821     A.U. after    7 cycles
 E2 =    -0.3052080186D+00 EUMP2 =    -0.79543400300715D+02
 Optimization completed.
    -- Stationary point found.

                         Standard orientation:
 ---------------------------------------------------------------------
 Center     Atomic      Atomic             Coordinates (Angstroms)
 Number     Number       Type             X           Y           Z
 ---------------------------------------------------------------------
      1          6           0       -0.407208    0.643744    0.000000
      2          6           0        0.407208   -0.643744    0.000000
      3          1           0       -1.340663    0.518411    0.546143
      4          1           0       -0.655410    0.951876   -1.014283
      5          1           0        0.144024    1.457567    0.468140
      6          1           0       -0.144024   -1.457567   -0.468140
      7          1           0        0.655410   -0.951876    1.014283
      8          1           0        1.340663   -0.518411   -0.546143
 ---------------------------------------------------------------------

 The electronic state is 1-AG.
 Alpha  occ. eigenvalues --  -11.21167 -11.21108  -1.01880  -0.84164  -0.59646
 Alpha  occ. eigenvalues --   -0.59646  -0.50896  -0.48543  -0.48543
 Alpha virt. eigenvalues --    0.24230   0.30244   0.31686   0.31686   0.33775
 Alpha virt. eigenvalues --    0.33775   0.41415   0.70274   0.73795   0.73795
 Alpha virt. eigenvalues --    0.83114   0.83114   0.93919   1.12802   1.12802

 Mulliken charges:
               1
     1  C   -0.333518
     2  C   -0.333518
     3  H    0.111173
     4  H    0.111173
     5  H    0.111173
     6  H    0.111173
     7  H    0.111173
     8  H    0.111173
 Sum of Mulliken charges =   0.00000

 Dipole moment (field-independent basis, Debye):
    X=              0.0000    Y=              0.0000    Z=              0.0000  Tot=              0.0000
 Quadrupole moment (field-independent basis, Debye-Ang):
   XX=            -15.0891   YY=            -15.3509   ZZ=            -14.9145
   XY=              0.2760   XZ=              0.0000   YZ=              0.0000

 Normal termination of Gaussian 09 at Thu Feb 23 18:25:42 2017.
