 Gaussian 09, Revision E.01,
 Gaussian 09:  ES64L-G09RevE.01 30-Nov-2015

 -----------------------
 #n M062X/6-31G(d,p) Opt
 -----------------------

 ------------------
 CH3_M062X/6-31G(d)
 ------------------
 Symbolic Z-matrix:
 Charge =  0 Multiplicity = 1

 SCF Done:  E(RM062X) =  -79.7781851662     A.U. after   12 cycles
 SCF Done:  E(RM062X) =  -79.7783639036     A.U. after    7 cycles
 SCF Done:  E(RM062X) =  -79.7783837829     A.U. after    7 cycles
 Optimization completed.
    -- Stationary point found.

                         Standard orientation:
 ---------------------------------------------------------------------
 Center     Atomic      Atomic             Coordinates (Angstroms)
 Number     Number       Type             X           Y           Z
 ---------------------------------------------------------------------
      1          6           0       -0.407693    0.644610    0.000026
      2          6           0        0.407693   -0.644610   -0.000026
      3          1           0       -1.345428    0.520500    0.548006
      4          1           0       -0.657852    0.955204   -1.017787
      5          1           0        0.144380    1.462764    0.469892
      6          1           0       -0.144380   -1.462764   -0.469892
      7          1           0        0.657852   -0.955204    1.017787
      8          1           0        1.345428   -0.520500   -0.548006
 ---------------------------------------------------------------------

 The electronic state is 1-AG.
 Alpha  occ. eigenvalues --  -10.52994 -10.52959  -0.84520  -0.69673  -0.49841
 Alpha  occ. eigenvalues --   -0.49832  -0.42337  -0.39904  -0.39895
 Alpha virt. eigenvalues --    0.15093   0.20659   0.21267   0.21269   0.23655
 Alpha virt. eigenvalues --    0.23659   0.28844   0.55650   0.58569   0.58576
 Alpha virt. eigenvalues --    0.66911   0.66917   0.73227   0.93327   0.93332

 Mulliken charges:
               1
     1  C   -0.366597
     2  C   -0.366597
     3  H    0.122177
     4  H    0.122197
     5  H    0.122223
     6  H    0.122223
     7  H    0.122197
     8  H    0.122177
 Sum of Mulliken charges =   0.00000

 Dipole moment (field-independent basis, Debye):
    X=              0.0000    Y=              0.0000    Z=              0.0000  Tot=              0.0000
 Quadrupole moment (field-independent basis, Debye-Ang):
   XX=            -14.8862   YY=            -15.0968   ZZ=            -14.7449
   XY=              0.2225   XZ=              0.0007   YZ=              0.0011

 Normal termination of Gaussian 09 at Thu Feb 23 18:28:11 2017.
