 Gaussian 09, Revision E.01,
 Gaussian 09:  ES64L-G09RevE.01 30-Nov-2015

 -----------------------
 #n B3LYP/6-31G(d,p) Opt
 -----------------------

 -----------------
 CH_B3LYP/6-31G(d)
 -----------------
 Symbolic Z-matrix:
 Charge =  0 Multiplicity = 1

 SCF Done:  E(RB3LYP) =  -77.3294858696     A.U. after   10 cycles
 SCF Done:  E(RB3LYP) =  -77.3295661262     A.U. after    7 cycles
 SCF Done:  E(RB3LYP) =  -77.3295668637     A.U. after    6 cycles
 Optimization completed.
    -- Stationary point found.

                         Standard orientation:
 ---------------------------------------------------------------------
 Center     Atomic      Atomic             Coordinates (Angstroms)
 Number     Number       Type             X           Y           Z
 ---------------------------------------------------------------------
      1          6           0        0.000000    0.000000    0.602676
      2          6           0        0.000000    0.000000   -0.602676
      3          1           0        0.000000    0.000000    1.668394
      4          1           0        0.000000    0.000000   -1.668394
 ---------------------------------------------------------------------

 The electronic state is 1-SGG.
 Alpha  occ. eigenvalues --  -10.19210 -10.18970  -0.74271  -0.56415  -0.49027
 Alpha  occ. eigenvalues --   -0.28236  -0.28236
 Alpha virt. eigenvalues --    0.05057   0.05057   0.10620   0.14968   0.42605
 Alpha virt. eigenvalues --    0.47071   0.53290   0.53290   0.65423   0.65423
 Alpha virt. eigenvalues --    0.74638   0.81181   1.02262   1.19961   1.37689

 Mulliken charges:
               1
     1  C   -0.148711
     2  C   -0.148711
     3  H    0.148711
     4  H    0.148711
 Sum of Mulliken charges =   0.00000

 Dipole moment (field-independent basis, Debye):
    X=              0.0000    Y=              0.0000    Z=              0.0000  Tot=              0.0000
 Quadrupole moment (field-independent basis, Debye-Ang):
   XX=            -13.0012   YY=            -13.0012   ZZ=             -6.8160
   XY=              0.0000   XZ=              0.0000   YZ=              0.0000

 Normal termination of Gaussian 09 at Thu Feb 23 18:16:29 2017.
