 Gaussian 09, Revision E.01,
 Gaussian 09:  ES64L-G09RevE.01 30-Nov-2015

 ----------------------
 #n CCSD/6-31G(d,p) Opt
 ----------------------

 ----------------
 CH_CCSD/6-31G(d)
 ----------------
 Symbolic Z-matrix:
 Charge =  0 Multiplicity = 1

 SCF Done:  E(RHF) =  -76.8209907792     A.U. after    9 cycles
 E2 =    -0.2603235279D+00 EUMP2 =    -0.77081314307092D+02
 SCF Done:  E(RHF) =  -76.8201640346     A.U. after    7 cycles
 E2 =    -0.2614362283D+00 EUMP2 =    -0.77081600262897D+02
 SCF Done:  E(RHF) =  -76.8202468406     A.U. after    6 cycles
 E2 =    -0.2613418878D+00 EUMP2 =    -0.77081588728352D+02
 Optimization completed.
    -- Stationary point found.

                         Standard orientation:
 ---------------------------------------------------------------------
 Center     Atomic      Atomic             Coordinates (Angstroms)
 Number     Number       Type             X           Y           Z
 ---------------------------------------------------------------------
      1          6           0        0.000000    0.000000    0.606063
      2          6           0        0.000000    0.000000   -0.606063
      3          1           0        0.000000    0.000000    1.669709
      4          1           0        0.000000    0.000000   -1.669709
 ---------------------------------------------------------------------

 The electronic state is 1-SG.
 Alpha  occ. eigenvalues --  -11.24231 -11.23884  -1.01674  -0.76020  -0.66936
 Alpha  occ. eigenvalues --   -0.39826  -0.39826
 Alpha virt. eigenvalues --    0.21226   0.21226   0.24806   0.29575   0.61131
 Alpha virt. eigenvalues --    0.64589   0.74858   0.74858   0.90518   0.90518
 Alpha virt. eigenvalues --    0.93901   1.02941   1.27534   1.52087   1.64774

 Mulliken charges:
               1
     1  C   -0.237429
     2  C   -0.237429
     3  H    0.237429
     4  H    0.237429
 Sum of Mulliken charges =   0.00000

 Dipole moment (field-independent basis, Debye):
    X=              0.0000    Y=              0.0000    Z=              0.0000  Tot=              0.0000
 Quadrupole moment (field-independent basis, Debye-Ang):
   XX=            -13.4324   YY=            -13.4324   ZZ=             -6.4920
   XY=              0.0000   XZ=              0.0000   YZ=              0.0000

 Normal termination of Gaussian 09 at Thu Feb 23 18:19:13 2017.
