 Gaussian 09, Revision E.01,
 Gaussian 09:  ES64L-G09RevE.01 30-Nov-2015

 -----------------------
 #n B3LYP/6-31G(d,p) Opt
 -----------------------

 -----
 Title
 -----
 Symbolic Z-matrix:
 Charge =  0 Multiplicity = 1

 SCF Done:  E(RB3LYP) =  -1.13345215799     A.U. after    6 cycles
 SCF Done:  E(RB3LYP) =  -1.16037724173     A.U. after    6 cycles
 SCF Done:  E(RB3LYP) =  -1.17817628346     A.U. after    7 cycles
 SCF Done:  E(RB3LYP) =  -1.17853886332     A.U. after    4 cycles
 SCF Done:  E(RB3LYP) =  -1.17853933613     A.U. after    4 cycles
 Optimization completed.
    -- Stationary point found.

                         Standard orientation:
 ---------------------------------------------------------------------
 Center     Atomic      Atomic             Coordinates (Angstroms)
 Number     Number       Type             X           Y           Z
 ---------------------------------------------------------------------
      1          1           0        0.000000    0.000000    0.371396
      2          1           0        0.000000    0.000000   -0.371396
 ---------------------------------------------------------------------

 The electronic state is 1-SGG.
 Alpha  occ. eigenvalues --   -0.43158
 Alpha virt. eigenvalues --    0.10097   0.57700   1.03609   1.67471   1.67471
 Alpha virt. eigenvalues --    2.37888   2.61567   2.61567   4.15287

 Mulliken charges:
               1
     1  H    0.000000
     2  H    0.000000
 Sum of Mulliken charges =   0.00000

 Dipole moment (field-independent basis, Debye):
    X=              0.0000    Y=              0.0000    Z=              0.0000  Tot=              0.0000
 Quadrupole moment (field-independent basis, Debye-Ang):
   XX=             -2.0291   YY=             -2.0291   ZZ=             -1.5076
   XY=              0.0000   XZ=              0.0000   YZ=              0.0000

 Normal termination of Gaussian 09 at Fri Feb 24 00:03:37 2017.
