 Gaussian 09, Revision E.01,
 Gaussian 09:  ES64L-G09RevE.01 30-Nov-2015

 ----------------------
 #n CCSD/6-31G(d,p) Opt
 ----------------------

 -----
 Title
 -----
 Symbolic Z-matrix:
 Charge =  0 Multiplicity = 1

 SCF Done:  E(RHF) =  -1.07994559235     A.U. after    5 cycles
 E2 =    -0.2798831089D-01 EUMP2 =    -0.11079339032388D+01
 SCF Done:  E(RHF) =  -1.10992689419     A.U. after    5 cycles
 E2 =    -0.2694334526D-01 EUMP2 =    -0.11368702394510D+01
 SCF Done:  E(RHF) =  -1.13132996887     A.U. after    6 cycles
 E2 =    -0.2632229505D-01 EUMP2 =    -0.11576522639247D+01
 SCF Done:  E(RHF) =  -1.13130589956     A.U. after    4 cycles
 E2 =    -0.2633787723D-01 EUMP2 =    -0.11576437767832D+01
 Optimization completed.
    -- Stationary point found.

                         Standard orientation:
 ---------------------------------------------------------------------
 Center     Atomic      Atomic             Coordinates (Angstroms)
 Number     Number       Type             X           Y           Z
 ---------------------------------------------------------------------
      1          1           0        0.000000    0.000000    0.369382
      2          1           0        0.000000    0.000000   -0.369382
 ---------------------------------------------------------------------

 The electronic state is 1-SGG.
 Alpha  occ. eigenvalues --   -0.59530
 Alpha virt. eigenvalues --    0.23986   0.77066   1.31164   1.95915   1.95915
 Alpha virt. eigenvalues --    2.70868   2.93258   2.93258   4.54111

 Mulliken charges:
               1
     1  H    0.000000
     2  H    0.000000
 Sum of Mulliken charges =   0.00000

 Dipole moment (field-independent basis, Debye):
    X=              0.0000    Y=              0.0000    Z=              0.0000  Tot=              0.0000
 Quadrupole moment (field-independent basis, Debye-Ang):
   XX=             -2.0589   YY=             -2.0589   ZZ=             -1.5219
   XY=              0.0000   XZ=              0.0000   YZ=              0.0000

 Normal termination of Gaussian 09 at Fri Feb 24 00:05:17 2017.
