 Gaussian 09, Revision E.01,
 Gaussian 09:  ES64L-G09RevE.01 30-Nov-2015

 -----------------------
 #n M062X/6-31G(d,p) Opt
 -----------------------

 -----
 Title
 -----
 Symbolic Z-matrix:
 Charge =  0 Multiplicity = 1

 SCF Done:  E(RM062X) =  -1.11961107036     A.U. after    9 cycles
 SCF Done:  E(RM062X) =  -1.14755557146     A.U. after    8 cycles
 SCF Done:  E(RM062X) =  -1.16638831727     A.U. after    8 cycles
 SCF Done:  E(RM062X) =  -1.16721044959     A.U. after    7 cycles
 SCF Done:  E(RM062X) =  -1.16721167306     A.U. after    4 cycles
 Optimization completed.
    -- Stationary point found.

                         Standard orientation:
 ---------------------------------------------------------------------
 Center     Atomic      Atomic             Coordinates (Angstroms)
 Number     Number       Type             X           Y           Z
 ---------------------------------------------------------------------
      1          1           0        0.000000    0.000000    0.368376
      2          1           0        0.000000    0.000000   -0.368376
 ---------------------------------------------------------------------

 The electronic state is 1-SGG.
 Alpha  occ. eigenvalues --   -0.49761
 Alpha virt. eigenvalues --    0.16817   0.63309   1.25878   1.96166   1.96166
 Alpha virt. eigenvalues --    2.48715   2.66255   2.66255   4.79274

 Mulliken charges:
               1
     1  H    0.000000
     2  H    0.000000
 Sum of Mulliken charges =   0.00000

 Dipole moment (field-independent basis, Debye):
    X=              0.0000    Y=              0.0000    Z=              0.0000  Tot=              0.0000
 Quadrupole moment (field-independent basis, Debye-Ang):
   XX=             -2.0275   YY=             -2.0275   ZZ=             -1.5039
   XY=              0.0000   XZ=              0.0000   YZ=              0.0000

 Normal termination of Gaussian 09 at Fri Feb 24 00:06:09 2017.
