 Gaussian 09, Revision E.01,
 Gaussian 09:  ES64L-G09RevE.01 30-Nov-2015

 ---------------------
 #n MP2/6-31G(d,p) Opt
 ---------------------

 -----
 Title
 -----
 Symbolic Z-matrix:
 Charge =  0 Multiplicity = 1

 SCF Done:  E(RHF) =  -1.07994559235     A.U. after    5 cycles
 E2 =    -0.2798831089D-01 EUMP2 =    -0.11079339032388D+01
 SCF Done:  E(RHF) =  -1.10992689419     A.U. after    5 cycles
 E2 =    -0.2694334526D-01 EUMP2 =    -0.11368702394510D+01
 SCF Done:  E(RHF) =  -1.13097823379     A.U. after    6 cycles
 E2 =    -0.2628755357D-01 EUMP2 =    -0.11572657873588D+01
 SCF Done:  E(RHF) =  -1.13133012527     A.U. after    4 cycles
 E2 =    -0.2633040444D-01 EUMP2 =    -0.11576605297104D+01
 SCF Done:  E(RHF) =  -1.13133241502     A.U. after    4 cycles
 E2 =    -0.2632871505D-01 EUMP2 =    -0.11576611300648D+01
 Optimization completed.
    -- Stationary point found.

                         Standard orientation:
 ---------------------------------------------------------------------
 Center     Atomic      Atomic             Coordinates (Angstroms)
 Number     Number       Type             X           Y           Z
 ---------------------------------------------------------------------
      1          1           0        0.000000    0.000000    0.366920
      2          1           0        0.000000    0.000000   -0.366920
 ---------------------------------------------------------------------

 The electronic state is 1-SGG.
 Alpha  occ. eigenvalues --   -0.59683
 Alpha virt. eigenvalues --    0.24112   0.76860   1.31600   1.95902   1.95902
 Alpha virt. eigenvalues --    2.71834   2.93832   2.93832   4.56728

 Mulliken charges:
               1
     1  H    0.000000
     2  H    0.000000
 Sum of Mulliken charges =   0.00000

 Dipole moment (field-independent basis, Debye):
    X=              0.0000    Y=              0.0000    Z=              0.0000  Tot=              0.0000
 Quadrupole moment (field-independent basis, Debye-Ang):
   XX=             -2.0517   YY=             -2.0517   ZZ=             -1.5206
   XY=              0.0000   XZ=              0.0000   YZ=              0.0000

 Normal termination of Gaussian 09 at Fri Feb 24 00:04:23 2017.
