 Gaussian 09, Revision A.02,
 Gaussian 09:  IA32M-G09RevA.02 11-Jun-2009

 ---------
 # PM6 OPT
 ---------

 -------------------
 Title Card Required
 -------------------
 Symbolic Z-matrix:
 Charge =  1 Multiplicity = 1

 SCF Done:  E(RPM6) =  0.359734781680     A.U. after   17 cycles
 SCF Done:  E(RPM6) =  0.327738974934     A.U. after   14 cycles
 SCF Done:  E(RPM6) =  0.288980204171     A.U. after   15 cycles
 SCF Done:  E(RPM6) =  0.262441661939     A.U. after   14 cycles
 SCF Done:  E(RPM6) =  0.252766593222     A.U. after   14 cycles
 SCF Done:  E(RPM6) =  0.241923808196     A.U. after   13 cycles
 SCF Done:  E(RPM6) =  0.237245084919     A.U. after   18 cycles
 SCF Done:  E(RPM6) =  0.237094277478     A.U. after   13 cycles
 SCF Done:  E(RPM6) =  0.236714482673     A.U. after   12 cycles
 SCF Done:  E(RPM6) =  0.236569735061     A.U. after   12 cycles
 SCF Done:  E(RPM6) =  0.235462734771     A.U. after   10 cycles
 SCF Done:  E(RPM6) =  0.235462178738     A.U. after   11 cycles
 SCF Done:  E(RPM6) =  0.235461022025     A.U. after   11 cycles
 SCF Done:  E(RPM6) =  0.235458425510     A.U. after   12 cycles
 SCF Done:  E(RPM6) =  0.235452940336     A.U. after   12 cycles
 SCF Done:  E(RPM6) =  0.235448890122     A.U. after   12 cycles
 SCF Done:  E(RPM6) =  0.235448616279     A.U. after   10 cycles
 SCF Done:  E(RPM6) =  0.235448524207     A.U. after   10 cycles
 SCF Done:  E(RPM6) =  0.235448504490     A.U. after    9 cycles
 SCF Done:  E(RPM6) =  0.235448503124     A.U. after    9 cycles
 Optimization completed.
    -- Stationary point found.

                         Standard orientation:
 ---------------------------------------------------------------------
 Center     Atomic      Atomic             Coordinates (Angstroms)
 Number     Number       Type             X           Y           Z
 ---------------------------------------------------------------------
      1          6           0        1.113546    1.453043   -0.216201
      2          6           0        1.332795   -0.679807    0.489249
      3          6           0        2.401198    1.023789   -0.539367
      4          1           0        1.114773   -1.652377    0.928574
      5          1           0        3.196864    1.568990   -1.037532
      6          1           0        0.651416    2.417922   -0.401888
      7          6           0       -0.939045    0.396138    0.912304
      8          1           0       -1.016784   -0.250679    1.819991
      9          1           0       -1.203464    1.431813    1.242539
     10          6           0       -1.896447   -0.084739   -0.185927
     11          1           0       -1.814508    0.555758   -1.088331
     12          1           0       -1.633755   -1.108850   -0.519736
     13          6           0       -3.346397   -0.067030    0.324395
     14          1           0       -3.447719   -0.710703    1.221866
     15          1           0       -3.628409    0.955724    0.648481
     16          6           0       -4.312518   -0.542449   -0.754480
     17          1           0       -4.106524   -1.570710   -1.075452
     18          1           0       -5.349347   -0.527592   -0.387950
     19          1           0       -4.285647    0.093832   -1.647641
     20          6           0        3.721286   -1.132882   -0.229453
     21          1           0        4.031565   -1.219687   -1.293483
     22          1           0        4.574406   -0.698527    0.336184
     23          1           0        3.559142   -2.160437    0.152203
     24          7           0        0.463540    0.394541    0.426246
     25          7           0        2.523815   -0.297519   -0.097811
 ---------------------------------------------------------------------

 The electronic state is 1-A.
 Alpha  occ. eigenvalues --   -1.45607  -1.31841  -1.19149  -1.14397  -1.10962
 Alpha  occ. eigenvalues --   -1.05597  -0.97809  -0.95737  -0.92491  -0.87482
 Alpha  occ. eigenvalues --   -0.83368  -0.77547  -0.75606  -0.74653  -0.73320
 Alpha  occ. eigenvalues --   -0.71656  -0.70557  -0.69790  -0.66355  -0.65417
 Alpha  occ. eigenvalues --   -0.64524  -0.62153  -0.58311  -0.58111  -0.55618
 Alpha  occ. eigenvalues --   -0.54613  -0.53635  -0.53351
 Alpha virt. eigenvalues --   -0.16585  -0.14546  -0.14013  -0.11792  -0.04779
 Alpha virt. eigenvalues --   -0.04140  -0.00970  -0.00941  -0.00679   0.00742
 Alpha virt. eigenvalues --    0.02218   0.02841   0.02970   0.03133   0.03520

 Mulliken atomic charges:
              1
     1  C   -0.112043
     2  C   -0.077544
     3  C   -0.131111
     4  H    0.237927
     5  H    0.226142
     6  H    0.224911
     7  C   -0.147904
     8  H    0.176316
     9  H    0.181542
    10  C   -0.294594
    11  H    0.159801
    12  H    0.155681
    13  C   -0.211544
    14  H    0.137532
    15  H    0.138816
    16  C   -0.465044
    17  H    0.156324
    18  H    0.166932
    19  H    0.157354
    20  C   -0.352647
    21  H    0.205116
    22  H    0.205080
    23  H    0.198971
    24  N    0.007891
    25  N    0.056095
 Sum of Mulliken atomic charges =   1.00000

 Dipole moment (field-independent basis, Debye):
    X=              5.9645    Y=             -0.5371    Z=              0.6499  Tot=              6.0238
 N-N= 3.136514832868D+02 E-N=-4.872135014472D+02  KE=-9.382543845868D+01
 1\1\GINC-D-173-250-154-13\FOpt\RPM6\ZDO\C8H15N2(1+)\JPFAENDT\02-Mar-20
 17\0\\# PM6 OPT\\Title Card Required\\1,1\C,-1.7438176114,1.2669636861
 ,1.0249255357\C,0.2981341411,2.1371008847,0.6149590768\C,-1.9107726329
 ,2.3937553873,0.2191900684\H,1.3765765341,2.2900231713,0.611846035\H,-
 2.8282951147,2.8234247073,-0.1707244888\H,-2.4997235944,0.5946911251,1
 .4195017512\C,0.261947894,0.0330324895,2.0535269984\H,1.1762159693,0.4
 278986379,2.5599896184\H,-0.4374905257,-0.2788556294,2.8690681499\C,0.
 608018324,-1.1576955707,1.1499922126\H,-0.3002389477,-1.5455606173,0.6
 441132947\H,1.2966532298,-0.8509194109,0.3370292344\C,1.254980996,-2.2

 Normal termination of Gaussian 09 at Thu Mar  2 15:24:24 2017.
