 Gaussian 09, Revision E.01,
 Gaussian 09:  ES64L-G09RevE.01 30-Nov-2015

 ------------------
 #n B3LYP/3-21G Opt
 ------------------

 -----
 Title
 -----
 Symbolic Z-matrix:
 Charge =  0 Multiplicity = 1

 SCF Done:  E(RB3LYP) =  -78.1608657854     A.U. after   10 cycles
 SCF Done:  E(RB3LYP) =  -78.1610407251     A.U. after    9 cycles
 SCF Done:  E(RB3LYP) =  -78.1610485164     A.U. after    6 cycles
 SCF Done:  E(RB3LYP) =  -78.1610489572     A.U. after    6 cycles
 Optimization completed.
    -- Stationary point found.

                         Standard orientation:
 ---------------------------------------------------------------------
 Center     Atomic      Atomic             Coordinates (Angstroms)
 Number     Number       Type             X           Y           Z
 ---------------------------------------------------------------------
      1          6           0        0.664703    0.000000    0.000000
      2          6           0       -0.664703    0.000000    0.000000
      3          1           0        1.238642   -0.921779    0.000000
      4          1           0        1.238642    0.921779    0.000000
      5          1           0       -1.238642   -0.921779    0.000000
      6          1           0       -1.238642    0.921779    0.000000
 ---------------------------------------------------------------------

 The electronic state is 1-A.
 Alpha  occ. eigenvalues --  -10.11959 -10.11859  -0.75990  -0.57698  -0.46968
 Alpha  occ. eigenvalues --   -0.42344  -0.35250  -0.27064
 Alpha virt. eigenvalues --    0.02226   0.14486   0.15486   0.17957   0.27586
 Alpha virt. eigenvalues --    0.36864   0.66704   0.71149   0.73087   0.80091
 Alpha virt. eigenvalues --    0.83308   0.87322   1.01145   1.05915   1.09034

 Mulliken charges:
               1
     1  C   -0.373329
     2  C   -0.373329
     3  H    0.186665
     4  H    0.186665
     5  H    0.186665
     6  H    0.186665
 Sum of Mulliken charges =   0.00000

 Dipole moment (field-independent basis, Debye):
    X=              0.0000    Y=              0.0000    Z=              0.0000  Tot=              0.0000
 Quadrupole moment (field-independent basis, Debye-Ang):
   XX=            -11.9729   YY=            -12.1537   ZZ=            -15.2790
   XY=              0.0000   XZ=              0.0000   YZ=              0.0000

 Normal termination of Gaussian 09 at Fri Feb 24 00:12:15 2017.
