 Gaussian 09, Revision E.01,
 Gaussian 09:  ES64L-G09RevE.01 30-Nov-2015

 ------------------
 #n M062X/3-21G Opt
 ------------------

 -----
 Title
 -----
 Symbolic Z-matrix:
 Charge =  0 Multiplicity = 1

 SCF Done:  E(RM062X) =  -78.1099590092     A.U. after   12 cycles
 SCF Done:  E(RM062X) =  -78.1101060857     A.U. after   11 cycles
 SCF Done:  E(RM062X) =  -78.1101129464     A.U. after    6 cycles
 Optimization completed.
    -- Stationary point found.

                         Standard orientation:
 ---------------------------------------------------------------------
 Center     Atomic      Atomic             Coordinates (Angstroms)
 Number     Number       Type             X           Y           Z
 ---------------------------------------------------------------------
      1          6           0        0.664002    0.000000    0.000000
      2          6           0       -0.664002    0.000000    0.000000
      3          1           0        1.236022   -0.921588    0.000001
      4          1           0        1.236022    0.921588    0.000000
      5          1           0       -1.236022   -0.921588    0.000000
      6          1           0       -1.236022    0.921588    0.000001
 ---------------------------------------------------------------------

 The electronic state is 1-A.
 Alpha  occ. eigenvalues --  -10.48499 -10.48426  -0.85577  -0.65521  -0.53892
 Alpha  occ. eigenvalues --   -0.48434  -0.41131  -0.32793
 Alpha virt. eigenvalues --    0.06939   0.19406   0.20543   0.23249   0.33043
 Alpha virt. eigenvalues --    0.41328   0.71631   0.75773   0.79136   0.86577
 Alpha virt. eigenvalues --    0.89439   0.93206   1.09556   1.13827   1.16830

 Mulliken charges:
               1
     1  C   -0.400182
     2  C   -0.400181
     3  H    0.200091
     4  H    0.200091
     5  H    0.200091
     6  H    0.200091
 Sum of Mulliken charges =   0.00000

 Dipole moment (field-independent basis, Debye):
    X=              0.0000    Y=              0.0000    Z=              0.0000  Tot=              0.0000
 Quadrupole moment (field-independent basis, Debye-Ang):
   XX=            -11.9579   YY=            -12.1634   ZZ=            -15.4175
   XY=              0.0000   XZ=              0.0000   YZ=              0.0000

 Normal termination of Gaussian 09 at Fri Feb 24 00:15:48 2017.
