 Gaussian 09, Revision E.01,
 Gaussian 09:  ES64L-G09RevE.01 30-Nov-2015

 -----------------
 #n CCSD/3-21G Opt
 -----------------

 -----
 Title
 -----
 Symbolic Z-matrix:
 Charge =  0 Multiplicity = 1

 SCF Done:  E(RHF) =  -77.6002108170     A.U. after    8 cycles
 E2 =    -0.1806032153D+00 EUMP2 =    -0.77780814032299D+02
 SCF Done:  E(RHF) =  -77.5989488334     A.U. after    8 cycles
 E2 =    -0.1822789702D+00 EUMP2 =    -0.77781227803602D+02
 SCF Done:  E(RHF) =  -77.5991634959     A.U. after    7 cycles
 E2 =    -0.1820940279D+00 EUMP2 =    -0.77781257523772D+02
 Optimization completed.
    -- Stationary point found.

                         Standard orientation:
 ---------------------------------------------------------------------
 Center     Atomic      Atomic             Coordinates (Angstroms)
 Number     Number       Type             X           Y           Z
 ---------------------------------------------------------------------
      1          6           0        0.671935    0.000000    0.000000
      2          6           0       -0.671935    0.000000    0.000000
      3          1           0        1.248433   -0.924781    0.000000
      4          1           0        1.248432    0.924781    0.000000
      5          1           0       -1.248433   -0.924781    0.000000
      6          1           0       -1.248433    0.924781    0.000000
 ---------------------------------------------------------------------

 The electronic state is 1-A.
 Alpha  occ. eigenvalues --  -11.17501 -11.17496  -1.02694  -0.78599  -0.63780
 Alpha  occ. eigenvalues --   -0.58398  -0.49839  -0.37355
 Alpha virt. eigenvalues --    0.17908   0.29445   0.30848   0.33452   0.43423
 Alpha virt. eigenvalues --    0.53530   0.89059   0.92697   0.99361   1.07426
 Alpha virt. eigenvalues --    1.09354   1.12488   1.30804   1.34845   1.38662

 Mulliken charges:
               1
     1  C   -0.423542
     2  C   -0.423542
     3  H    0.211771
     4  H    0.211771
     5  H    0.211771
     6  H    0.211771
 Sum of Mulliken charges =   0.00000

 Dipole moment (field-independent basis, Debye):
    X=              0.0000    Y=              0.0000    Z=              0.0000  Tot=              0.0000
 Quadrupole moment (field-independent basis, Debye-Ang):
   XX=            -12.0624   YY=            -12.3608   ZZ=            -15.7976
   XY=              0.0000   XZ=              0.0000   YZ=              0.0000

 Normal termination of Gaussian 09 at Fri Feb 24 00:14:05 2017.
