 Gaussian 09, Revision E.01,
 Gaussian 09:  ES64L-G09RevE.01 30-Nov-2015

 ------------------
 #n M062X/3-21G Opt
 ------------------

 ---------------
 CH3_M062X/3-21G
 ---------------
 Symbolic Z-matrix:
 Charge =  0 Multiplicity = 1

 SCF Done:  E(RM062X) =  -79.3421745864     A.U. after   12 cycles
 SCF Done:  E(RM062X) =  -79.3422586927     A.U. after   11 cycles
 SCF Done:  E(RM062X) =  -79.3422653584     A.U. after    6 cycles
 Optimization completed.
    -- Stationary point found.

                         Standard orientation:
 ---------------------------------------------------------------------
 Center     Atomic      Atomic             Coordinates (Angstroms)
 Number     Number       Type             X           Y           Z
 ---------------------------------------------------------------------
      1          6           0       -0.412362    0.652107    0.000013
      2          6           0        0.412362   -0.652107   -0.000013
      3          1           0       -1.348495    0.519294    0.550120
      4          1           0       -0.658488    0.955496   -1.021986
      5          1           0        0.147084    1.465312    0.472052
      6          1           0       -0.147084   -1.465312   -0.472052
      7          1           0        0.658488   -0.955496    1.021986
      8          1           0        1.348495   -0.519294   -0.550120
 ---------------------------------------------------------------------

 The electronic state is 1-AG.
 Alpha  occ. eigenvalues --  -10.47027 -10.46971  -0.84193  -0.69585  -0.49844
 Alpha  occ. eigenvalues --   -0.49829  -0.42014  -0.39931  -0.39916
 Alpha virt. eigenvalues --    0.17821   0.23110   0.23115   0.23599   0.26223
 Alpha virt. eigenvalues --    0.26227   0.29698   0.73883   0.73903   0.79764
 Alpha virt. eigenvalues --    0.85011   0.90024   0.90059   1.05823   1.14398

 Mulliken charges:
               1
     1  C   -0.588760
     2  C   -0.588760
     3  H    0.196288
     4  H    0.196212
     5  H    0.196260
     6  H    0.196260
     7  H    0.196212
     8  H    0.196288
 Sum of Mulliken charges =   0.00000

 Dipole moment (field-independent basis, Debye):
    X=              0.0000    Y=              0.0000    Z=              0.0000  Tot=              0.0000
 Quadrupole moment (field-independent basis, Debye-Ang):
   XX=            -14.9379   YY=            -15.1179   ZZ=            -14.8161
   XY=              0.1893   XZ=              0.0016   YZ=              0.0028

 Normal termination of Gaussian 09 at Thu Feb 23 18:27:19 2017.
