 Gaussian 09, Revision E.01,
 Gaussian 09:  ES64L-G09RevE.01 30-Nov-2015

 -----------------
 #n CCSD/3-21G Opt
 -----------------

 --------------
 CH3_CCSD/3-21G
 --------------
 Symbolic Z-matrix:
 Charge =  0 Multiplicity = 1

 SCF Done:  E(RHF) =  -78.7935858123     A.U. after    9 cycles
 E2 =    -0.1882807872D+00 EUMP2 =    -0.78981866599472D+02
 SCF Done:  E(RHF) =  -78.7928671873     A.U. after    7 cycles
 E2 =    -0.1890604203D+00 EUMP2 =    -0.78981927607560D+02
 SCF Done:  E(RHF) =  -78.7929128819     A.U. after    7 cycles
 E2 =    -0.1890473127D+00 EUMP2 =    -0.78981960194599D+02
 Optimization completed.
    -- Stationary point found.

                         Standard orientation:
 ---------------------------------------------------------------------
 Center     Atomic      Atomic             Coordinates (Angstroms)
 Number     Number       Type             X           Y           Z
 ---------------------------------------------------------------------
      1          6           0       -0.415973    0.657600    0.000000
      2          6           0        0.415973   -0.657600    0.000000
      3          1           0       -1.356339    0.522603    0.553167
      4          1           0       -0.662273    0.961643   -1.027326
      5          1           0        0.147441    1.473837    0.474160
      6          1           0       -0.147441   -1.473837   -0.474160
      7          1           0        0.662273   -0.961643    1.027326
      8          1           0        1.356339   -0.522603   -0.553167
 ---------------------------------------------------------------------

 The electronic state is 1-AG.
 Alpha  occ. eigenvalues --  -11.15914 -11.15893  -1.01205  -0.84087  -0.59413
 Alpha  occ. eigenvalues --   -0.59413  -0.49906  -0.48434  -0.48434
 Alpha virt. eigenvalues --    0.27607   0.33485   0.33485   0.33729   0.36707
 Alpha virt. eigenvalues --    0.36707   0.41817   0.91092   0.91092   0.98441
 Alpha virt. eigenvalues --    1.06169   1.09546   1.09546   1.27090   1.35392

 Mulliken charges:
               1
     1  C   -0.592201
     2  C   -0.592201
     3  H    0.197400
     4  H    0.197400
     5  H    0.197400
     6  H    0.197400
     7  H    0.197400
     8  H    0.197400
 Sum of Mulliken charges =   0.00000

 Dipole moment (field-independent basis, Debye):
    X=              0.0000    Y=              0.0000    Z=              0.0000  Tot=              0.0000
 Quadrupole moment (field-independent basis, Debye-Ang):
   XX=            -15.2381   YY=            -15.4473   ZZ=            -15.0986
   XY=              0.2205   XZ=              0.0000   YZ=              0.0000

 Normal termination of Gaussian 09 at Thu Feb 23 18:26:35 2017.
