 Gaussian 09, Revision E.01,
 Gaussian 09:  ES64L-G09RevE.01 30-Nov-2015

 ----------------
 #n MP2/3-21G Opt
 ----------------

 -------------
 CH3_MP2/3-21G
 -------------
 Symbolic Z-matrix:
 Charge =  0 Multiplicity = 1

 SCF Done:  E(RHF) =  -78.7935858123     A.U. after    9 cycles
 E2 =    -0.1882807872D+00 EUMP2 =    -0.78981866599472D+02
 SCF Done:  E(RHF) =  -78.7934120522     A.U. after    7 cycles
 E2 =    -0.1886278215D+00 EUMP2 =    -0.78982039873681D+02
 SCF Done:  E(RHF) =  -78.7934442697     A.U. after    7 cycles
 E2 =    -0.1886105129D+00 EUMP2 =    -0.78982054782577D+02
 Optimization completed.
    -- Stationary point found.

                         Standard orientation:
 ---------------------------------------------------------------------
 Center     Atomic      Atomic             Coordinates (Angstroms)
 Number     Number       Type             X           Y           Z
 ---------------------------------------------------------------------
      1          6           0       -0.414527    0.655314    0.000000
      2          6           0        0.414527   -0.655314    0.000000
      3          1           0       -1.351095    0.521103    0.550850
      4          1           0       -0.659935    0.958305   -1.023025
      5          1           0        0.146388    1.468354    0.472175
      6          1           0       -0.146388   -1.468354   -0.472175
      7          1           0        0.659935   -0.958305    1.023025
      8          1           0        1.351095   -0.521103   -0.550850
 ---------------------------------------------------------------------

 The electronic state is 1-AG.
 Alpha  occ. eigenvalues --  -11.15692 -11.15671  -1.01439  -0.84226  -0.59587
 Alpha  occ. eigenvalues --   -0.59587  -0.50038  -0.48498  -0.48498
 Alpha virt. eigenvalues --    0.27699   0.33645   0.33645   0.33916   0.36819
 Alpha virt. eigenvalues --    0.36819   0.42049   0.90925   0.90925   0.98038
 Alpha virt. eigenvalues --    1.06591   1.09251   1.09251   1.27720   1.35806

 Mulliken charges:
               1
     1  C   -0.594765
     2  C   -0.594765
     3  H    0.198255
     4  H    0.198255
     5  H    0.198255
     6  H    0.198255
     7  H    0.198255
     8  H    0.198255
 Sum of Mulliken charges =   0.00000

 Dipole moment (field-independent basis, Debye):
    X=              0.0000    Y=              0.0000    Z=              0.0000  Tot=              0.0000
 Quadrupole moment (field-independent basis, Debye-Ang):
   XX=            -15.2177   YY=            -15.4288   ZZ=            -15.0768
   XY=              0.2227   XZ=              0.0000   YZ=              0.0000

 Normal termination of Gaussian 09 at Thu Feb 23 18:25:39 2017.
