 Gaussian 09, Revision E.01,
 Gaussian 09:  ES64L-G09RevE.01 30-Nov-2015

 ------------------
 #n B3LYP/3-21G Opt
 ------------------

 ---------------
 CH3_B3LYP/3-21G
 ---------------
 Symbolic Z-matrix:
 Charge =  0 Multiplicity = 1

 SCF Done:  E(RB3LYP) =  -79.4004913612     A.U. after   10 cycles
 SCF Done:  E(RB3LYP) =  -79.4006349121     A.U. after    9 cycles
 SCF Done:  E(RB3LYP) =  -79.4006430251     A.U. after    6 cycles
 Optimization completed.
    -- Stationary point found.

                         Standard orientation:
 ---------------------------------------------------------------------
 Center     Atomic      Atomic             Coordinates (Angstroms)
 Number     Number       Type             X           Y           Z
 ---------------------------------------------------------------------
      1          6           0       -0.412910    0.652756    0.000011
      2          6           0        0.412910   -0.652756   -0.000011
      3          1           0       -1.350709    0.520753    0.550768
      4          1           0       -0.659653    0.957872   -1.022867
      5          1           0        0.146535    1.467864    0.472109
      6          1           0       -0.146535   -1.467864   -0.472109
      7          1           0        0.659653   -0.957872    1.022867
      8          1           0        1.350709   -0.520753   -0.550768
 ---------------------------------------------------------------------

 The electronic state is 1-AG.
 Alpha  occ. eigenvalues --  -10.10685 -10.10616  -0.74734  -0.61230  -0.43161
 Alpha  occ. eigenvalues --   -0.43161  -0.36225  -0.34037  -0.34036
 Alpha virt. eigenvalues --    0.13054   0.18051   0.18051   0.18425   0.21229
 Alpha virt. eigenvalues --    0.21230   0.24963   0.69298   0.69299   0.74590
 Alpha virt. eigenvalues --    0.78662   0.84767   0.84769   0.98495   1.06964

 Mulliken charges:
               1
     1  C   -0.562971
     2  C   -0.562971
     3  H    0.187659
     4  H    0.187655
     5  H    0.187657
     6  H    0.187657
     7  H    0.187655
     8  H    0.187659
 Sum of Mulliken charges =   0.00000

 Dipole moment (field-independent basis, Debye):
    X=              0.0000    Y=              0.0000    Z=              0.0000  Tot=              0.0000
 Quadrupole moment (field-independent basis, Debye-Ang):
   XX=            -14.8886   YY=            -15.0597   ZZ=            -14.7744
   XY=              0.1805   XZ=             -0.0001   YZ=              0.0001

 Normal termination of Gaussian 09 at Thu Feb 23 18:24:48 2017.
