 Gaussian 09, Revision E.01,
 Gaussian 09:  ES64L-G09RevE.01 30-Nov-2015

 ------------------
 #n B3LYP/3-21G Opt
 ------------------

 --------------
 CH_B3LYP/3-21G
 --------------
 Symbolic Z-matrix:
 Charge =  0 Multiplicity = 1

 SCF Done:  E(RB3LYP) =  -76.9071550989     A.U. after    9 cycles
 SCF Done:  E(RB3LYP) =  -76.9071831939     A.U. after    7 cycles
 SCF Done:  E(RB3LYP) =  -76.9071835510     A.U. after    7 cycles
 Optimization completed.
    -- Stationary point found.

                         Standard orientation:
 ---------------------------------------------------------------------
 Center     Atomic      Atomic             Coordinates (Angstroms)
 Number     Number       Type             X           Y           Z
 ---------------------------------------------------------------------
      1          6           0        0.000000    0.000000    0.601829
      2          6           0        0.000000    0.000000   -0.601829
      3          1           0        0.000000    0.000000    1.664064
      4          1           0        0.000000    0.000000   -1.664064
 ---------------------------------------------------------------------

 The electronic state is 1-SG.
 Alpha  occ. eigenvalues --  -10.12920 -10.12875  -0.75330  -0.56549  -0.49953
 Alpha  occ. eigenvalues --   -0.29021  -0.29021
 Alpha virt. eigenvalues --    0.05615   0.05615   0.12225   0.17065   0.48515
 Alpha virt. eigenvalues --    0.71261   0.71261   0.71424   0.81676   0.81676
 Alpha virt. eigenvalues --    1.02541   1.08316   1.25368   1.30431   2.00702

 Mulliken charges:
               1
     1  C   -0.247951
     2  C   -0.247951
     3  H    0.247951
     4  H    0.247951
 Sum of Mulliken charges =   0.00000

 Dipole moment (field-independent basis, Debye):
    X=              0.0000    Y=              0.0000    Z=              0.0000  Tot=              0.0000
 Quadrupole moment (field-independent basis, Debye-Ang):
   XX=            -13.2461   YY=            -13.2461   ZZ=             -6.9383
   XY=              0.0000   XZ=              0.0000   YZ=              0.0000

 Normal termination of Gaussian 09 at Thu Feb 23 18:16:33 2017.
