 Gaussian 09, Revision E.01,
 Gaussian 09:  ES64L-G09RevE.01 30-Nov-2015

 -----------------
 #n CCSD/3-21G Opt
 -----------------

 -------------
 CH_CCSD/3-21G
 -------------
 Symbolic Z-matrix:
 Charge =  0 Multiplicity = 1

 SCF Done:  E(RHF) =  -76.3951554456     A.U. after    9 cycles
 E2 =    -0.1835582083D+00 EUMP2 =    -0.76578713653894D+02
 SCF Done:  E(RHF) =  -76.3934892400     A.U. after    8 cycles
 E2 =    -0.1857049632D+00 EUMP2 =    -0.76579194203244D+02
 SCF Done:  E(RHF) =  -76.3936033741     A.U. after    6 cycles
 E2 =    -0.1855847643D+00 EUMP2 =    -0.76579188138377D+02
 Optimization completed.
    -- Stationary point found.

                         Standard orientation:
 ---------------------------------------------------------------------
 Center     Atomic      Atomic             Coordinates (Angstroms)
 Number     Number       Type             X           Y           Z
 ---------------------------------------------------------------------
      1          6           0        0.000000    0.000000    0.608416
      2          6           0        0.000000    0.000000   -0.608416
      3          1           0        0.000000    0.000000    1.676786
      4          1           0        0.000000    0.000000   -1.676786
 ---------------------------------------------------------------------

 The electronic state is 1-SGG.
 Alpha  occ. eigenvalues --  -11.19026 -11.18862  -1.02565  -0.75589  -0.67473
 Alpha  occ. eigenvalues --   -0.40505  -0.40505
 Alpha virt. eigenvalues --    0.21666   0.21666   0.27122   0.32590   0.67396
 Alpha virt. eigenvalues --    0.93177   0.96344   0.96344   1.08799   1.08799
 Alpha virt. eigenvalues --    1.26239   1.31662   1.51934   1.61539   2.26158

 Mulliken charges:
               1
     1  C   -0.337582
     2  C   -0.337582
     3  H    0.337582
     4  H    0.337582
 Sum of Mulliken charges =   0.00000

 Dipole moment (field-independent basis, Debye):
    X=              0.0000    Y=              0.0000    Z=              0.0000  Tot=              0.0000
 Quadrupole moment (field-independent basis, Debye-Ang):
   XX=            -13.7302   YY=            -13.7302   ZZ=             -6.7279
   XY=              0.0000   XZ=              0.0000   YZ=              0.0000

 Normal termination of Gaussian 09 at Thu Feb 23 18:18:15 2017.
