 Gaussian 09, Revision E.01,
 Gaussian 09:  ES64L-G09RevE.01 30-Nov-2015

 ------------------
 #n B3LYP/3-21G Opt
 ------------------

 -----
 Title
 -----
 Symbolic Z-matrix:
 Charge =  0 Multiplicity = 1

 SCF Done:  E(RB3LYP) =  -1.12631721043     A.U. after    5 cycles
 SCF Done:  E(RB3LYP) =  -1.15294170404     A.U. after    6 cycles
 SCF Done:  E(RB3LYP) =  -1.17028286309     A.U. after    7 cycles
 SCF Done:  E(RB3LYP) =  -1.17061066746     A.U. after    4 cycles
 SCF Done:  E(RB3LYP) =  -1.17061101193     A.U. after    3 cycles
 Optimization completed.
    -- Stationary point found.

                         Standard orientation:
 ---------------------------------------------------------------------
 Center     Atomic      Atomic             Coordinates (Angstroms)
 Number     Number       Type             X           Y           Z
 ---------------------------------------------------------------------
      1          1           0        0.000000    0.000000    0.373111
      2          1           0        0.000000    0.000000   -0.373111
 ---------------------------------------------------------------------

 The electronic state is 1-SGG.
 Alpha  occ. eigenvalues --   -0.42871
 Alpha virt. eigenvalues --    0.11695   0.71261   1.21945

 Mulliken charges:
               1
     1  H    0.000000
     2  H    0.000000
 Sum of Mulliken charges =   0.00000

 Dipole moment (field-independent basis, Debye):
    X=              0.0000    Y=              0.0000    Z=              0.0000  Tot=              0.0000
 Quadrupole moment (field-independent basis, Debye-Ang):
   XX=             -1.9736   YY=             -1.9736   ZZ=             -1.5413
   XY=              0.0000   XZ=              0.0000   YZ=              0.0000

 Normal termination of Gaussian 09 at Fri Feb 24 00:02:34 2017.
