 Gaussian 09, Revision E.01,
 Gaussian 09:  ES64L-G09RevE.01 30-Nov-2015

 ----------------
 #n MP2/3-21G Opt
 ----------------

 -----
 Title
 -----
 Symbolic Z-matrix:
 Charge =  0 Multiplicity = 1

 SCF Done:  E(RHF) =  -1.07204720349     A.U. after    4 cycles
 E2 =    -0.2162351222D-01 EUMP2 =    -0.10936707157103D+01
 SCF Done:  E(RHF) =  -1.10178876460     A.U. after    5 cycles
 E2 =    -0.1943084633D-01 EUMP2 =    -0.11212196109282D+01
 SCF Done:  E(RHF) =  -1.12279178023     A.U. after    5 cycles
 E2 =    -0.1712627636D-01 EUMP2 =    -0.11399180565843D+01
 SCF Done:  E(RHF) =  -1.12292198804     A.U. after    4 cycles
 E2 =    -0.1733218035D-01 EUMP2 =    -0.11402541683964D+01
 SCF Done:  E(RHF) =  -1.12292916034     A.U. after    3 cycles
 E2 =    -0.1732537706D-01 EUMP2 =    -0.11402545374044D+01
 Optimization completed.
    -- Stationary point found.

                         Standard orientation:
 ---------------------------------------------------------------------
 Center     Atomic      Atomic             Coordinates (Angstroms)
 Number     Number       Type             X           Y           Z
 ---------------------------------------------------------------------
      1          1           0        0.000000    0.000000    0.370656
      2          1           0        0.000000    0.000000   -0.370656
 ---------------------------------------------------------------------

 The electronic state is 1-SGG.
 Alpha  occ. eigenvalues --   -0.59223
 Alpha virt. eigenvalues --    0.26380   0.92098   1.52404

 Mulliken charges:
               1
     1  H    0.000000
     2  H    0.000000
 Sum of Mulliken charges =   0.00000

 Dipole moment (field-independent basis, Debye):
    X=              0.0000    Y=              0.0000    Z=              0.0000  Tot=              0.0000
 Quadrupole moment (field-independent basis, Debye-Ang):
   XX=             -2.0028   YY=             -2.0028   ZZ=             -1.5724
   XY=              0.0000   XZ=              0.0000   YZ=              0.0000

 Normal termination of Gaussian 09 at Fri Feb 24 00:03:29 2017.
