 Gaussian 09, Revision E.01,
 Gaussian 09:  ES64L-G09RevE.01 30-Nov-2015

 ------------------
 #n M062X/3-21G Opt
 ------------------

 -----
 Title
 -----
 Symbolic Z-matrix:
 Charge =  0 Multiplicity = 1

 SCF Done:  E(RM062X) =  -1.11301432455     A.U. after    6 cycles
 SCF Done:  E(RM062X) =  -1.14094927693     A.U. after    8 cycles
 SCF Done:  E(RM062X) =  -1.15969402509     A.U. after    7 cycles
 SCF Done:  E(RM062X) =  -1.16010351764     A.U. after    4 cycles
 SCF Done:  E(RM062X) =  -1.16010386412     A.U. after    3 cycles
 Optimization completed.
    -- Stationary point found.

                         Standard orientation:
 ---------------------------------------------------------------------
 Center     Atomic      Atomic             Coordinates (Angstroms)
 Number     Number       Type             X           Y           Z
 ---------------------------------------------------------------------
      1          1           0        0.000000    0.000000    0.370762
      2          1           0        0.000000    0.000000   -0.370762
 ---------------------------------------------------------------------

 The electronic state is 1-SGG.
 Alpha  occ. eigenvalues --   -0.49252
 Alpha virt. eigenvalues --    0.18624   0.76444   1.50191

 Mulliken charges:
               1
     1  H    0.000000
     2  H    0.000000
 Sum of Mulliken charges =   0.00000

 Dipole moment (field-independent basis, Debye):
    X=              0.0000    Y=              0.0000    Z=              0.0000  Tot=              0.0000
 Quadrupole moment (field-independent basis, Debye-Ang):
   XX=             -1.9647   YY=             -1.9647   ZZ=             -1.5374
   XY=              0.0000   XZ=              0.0000   YZ=              0.0000

 Normal termination of Gaussian 09 at Fri Feb 24 00:06:07 2017.
