 Gaussian 09, Revision E.01,
 Gaussian 09:  ES64L-G09RevE.01 30-Nov-2015

 ---------------------
 #n MP2/6-31G(d,p) Opt
 ---------------------

 ------------------
 Ethane MP2 6-31Gdp
 ------------------
 Symbolic Z-matrix:
 Charge =  0 Multiplicity = 1

 SCF Done:  E(RHF) =  -79.2378303988     A.U. after    9 cycles
 E2 =    -0.3053090387D+00 EUMP2 =    -0.79543139437521D+02
 SCF Done:  E(RHF) =  -79.2381963556     A.U. after    8 cycles
 E2 =    -0.3051897856D+00 EUMP2 =    -0.79543386141215D+02
 SCF Done:  E(RHF) =  -79.2381922770     A.U. after    7 cycles
 E2 =    -0.3052080241D+00 EUMP2 =    -0.79543400301158D+02
 Optimization completed.
    -- Stationary point found.

                         Standard orientation:
 ---------------------------------------------------------------------
 Center     Atomic      Atomic             Coordinates (Angstroms)
 Number     Number       Type             X           Y           Z
 ---------------------------------------------------------------------
      1          6           0       -0.760707    0.039352    0.000000
      2          6           0        0.760707   -0.039352    0.000000
      3          1           0       -1.136103    0.391624    0.959323
      4          1           0       -1.204782   -0.936012   -0.191789
      5          1           0       -1.118940    0.723367   -0.767537
      6          1           0        1.118940   -0.723367    0.767537
      7          1           0        1.204782    0.936012    0.191789
      8          1           0        1.136103   -0.391624   -0.959323
 ---------------------------------------------------------------------

 The electronic state is 1-AG.
 Alpha  occ. eigenvalues --  -11.21167 -11.21108  -1.01880  -0.84164  -0.59646
 Alpha  occ. eigenvalues --   -0.59646  -0.50896  -0.48543  -0.48543
 Alpha virt. eigenvalues --    0.24230   0.30244   0.31686   0.31686   0.33775
 Alpha virt. eigenvalues --    0.33775   0.41415   0.70274   0.73795   0.73795
 Alpha virt. eigenvalues --    0.83114   0.83114   0.93919   1.12801   1.12801

 Mulliken charges:
               1
     1  C   -0.333518
     2  C   -0.333518
     3  H    0.111173
     4  H    0.111173
     5  H    0.111173
     6  H    0.111173
     7  H    0.111173
     8  H    0.111173
 Sum of Mulliken charges =   0.00000

 Dipole moment (field-independent basis, Debye):
    X=              0.0000    Y=              0.0000    Z=              0.0000  Tot=              0.0000
 Quadrupole moment (field-independent basis, Debye-Ang):
   XX=            -15.5239   YY=            -14.9162   ZZ=            -14.9145
   XY=              0.0315   XZ=              0.0000   YZ=              0.0000

 Normal termination of Gaussian 09 at Tue Feb 21 17:46:45 2017.
