 Gaussian 09, Revision E.01,
 Gaussian 09:  ES64L-G09RevE.01 30-Nov-2015

 -------------------
 #n MP2/6-31G(d) Opt
 -------------------

 -----------------
 Ethane MP2 6-31Gd
 -----------------
 Symbolic Z-matrix:
 Charge =  0 Multiplicity = 1

 SCF Done:  E(RHF) =  -79.2283419657     A.U. after    9 cycles
 E2 =    -0.2662164592D+00 EUMP2 =    -0.79494558424911D+02
 SCF Done:  E(RHF) =  -79.2285281248     A.U. after    8 cycles
 E2 =    -0.2661991034D+00 EUMP2 =    -0.79494727228221D+02
 SCF Done:  E(RHF) =  -79.2285160914     A.U. after    7 cycles
 E2 =    -0.2662256292D+00 EUMP2 =    -0.79494741720589D+02
 Optimization completed.
    -- Stationary point found.

                         Standard orientation:
 ---------------------------------------------------------------------
 Center     Atomic      Atomic             Coordinates (Angstroms)
 Number     Number       Type             X           Y           Z
 ---------------------------------------------------------------------
      1          6           0       -0.761619    0.039399    0.000000
      2          6           0        0.761619   -0.039399    0.000000
      3          1           0       -1.138861    0.393120    0.963225
      4          1           0       -1.207818   -0.939916   -0.192569
      5          1           0       -1.121628    0.726213   -0.770659
      6          1           0        1.121628   -0.726213    0.770659
      7          1           0        1.207818    0.939916    0.192569
      8          1           0        1.138861   -0.393120   -0.963225
 ---------------------------------------------------------------------

 The electronic state is 1-AG.
 Alpha  occ. eigenvalues --  -11.21313 -11.21254  -1.01755  -0.84014  -0.59633
 Alpha  occ. eigenvalues --   -0.59633  -0.50959  -0.48581  -0.48581
 Alpha virt. eigenvalues --    0.24170   0.30137   0.31517   0.31517   0.33766
 Alpha virt. eigenvalues --    0.33766   0.41302   0.70663   0.74163   0.74163
 Alpha virt. eigenvalues --    0.84957   0.84958   0.94349   1.15284   1.15284

 Mulliken charges:
               1
     1  C   -0.473028
     2  C   -0.473028
     3  H    0.157676
     4  H    0.157676
     5  H    0.157676
     6  H    0.157676
     7  H    0.157676
     8  H    0.157676
 Sum of Mulliken charges =   0.00000

 Dipole moment (field-independent basis, Debye):
    X=              0.0000    Y=              0.0000    Z=              0.0000  Tot=              0.0000
 Quadrupole moment (field-independent basis, Debye-Ang):
   XX=            -15.6017   YY=            -14.9506   ZZ=            -14.9488
   XY=              0.0338   XZ=              0.0000   YZ=              0.0000

 Normal termination of Gaussian 09 at Tue Feb 21 17:44:24 2017.
