 Gaussian 09, Revision E.01,
 Gaussian 09:  ES64L-G09RevE.01 30-Nov-2015

 ----------------
 #n MP2/3-21G Opt
 ----------------

 ----------------
 Ethane MP2 3-21G
 ----------------
 Symbolic Z-matrix:
 Charge =  0 Multiplicity = 1

 SCF Done:  E(RHF) =  -78.7935859918     A.U. after    9 cycles
 E2 =    -0.1882806253D+00 EUMP2 =    -0.78981866617164D+02
 SCF Done:  E(RHF) =  -78.7934120440     A.U. after    7 cycles
 E2 =    -0.1886278366D+00 EUMP2 =    -0.78982039880540D+02
 SCF Done:  E(RHF) =  -78.7934442704     A.U. after    7 cycles
 E2 =    -0.1886105131D+00 EUMP2 =    -0.78982054783522D+02
 Optimization completed.
    -- Stationary point found.

                         Standard orientation:
 ---------------------------------------------------------------------
 Center     Atomic      Atomic             Coordinates (Angstroms)
 Number     Number       Type             X           Y           Z
 ---------------------------------------------------------------------
      1          6           0       -0.774381    0.040059   -0.000001
      2          6           0        0.774381   -0.040059    0.000001
      3          1           0       -1.143796    0.394891    0.967592
      4          1           0       -1.213066   -0.944188   -0.193442
      5          1           0       -1.126485    0.729493   -0.774152
      6          1           0        1.126485   -0.729493    0.774152
      7          1           0        1.213066    0.944188    0.193442
      8          1           0        1.143796   -0.394891   -0.967592
 ---------------------------------------------------------------------

 The electronic state is 1-AG.
 Alpha  occ. eigenvalues --  -11.15692 -11.15671  -1.01439  -0.84226  -0.59587
 Alpha  occ. eigenvalues --   -0.59587  -0.50038  -0.48498  -0.48498
 Alpha virt. eigenvalues --    0.27699   0.33645   0.33646   0.33916   0.36819
 Alpha virt. eigenvalues --    0.36819   0.42049   0.90925   0.90925   0.98038
 Alpha virt. eigenvalues --    1.06591   1.09251   1.09251   1.27720   1.35806

 Mulliken charges:
               1
     1  C   -0.594765
     2  C   -0.594765
     3  H    0.198255
     4  H    0.198255
     5  H    0.198255
     6  H    0.198255
     7  H    0.198255
     8  H    0.198255
 Sum of Mulliken charges =   0.00000

 Dipole moment (field-independent basis, Debye):
    X=              0.0000    Y=              0.0000    Z=              0.0000  Tot=              0.0000
 Quadrupole moment (field-independent basis, Debye-Ang):
   XX=            -15.5684   YY=            -15.0781   ZZ=            -15.0768
   XY=              0.0254   XZ=              0.0000   YZ=              0.0000

 Normal termination of Gaussian 09 at Tue Feb 21 17:44:22 2017.
