 Gaussian 09, Revision E.01,
 Gaussian 09:  ES64L-G09RevE.01 30-Nov-2015

 ------------------
 #n MP2/LANL2DZ Opt
 ------------------

 ------------------
 Ethane MP2 LANL2DZ
 ------------------
 Symbolic Z-matrix:
 Charge =  0 Multiplicity = 1

 SCF Done:  E(RHF) =  -79.2056342918     A.U. after    9 cycles
 E2 =    -0.1761778715D+00 EUMP2 =    -0.79381812163227D+02
 SCF Done:  E(RHF) =  -79.2039776411     A.U. after    7 cycles
 E2 =    -0.1788782888D+00 EUMP2 =    -0.79382855929933D+02
 SCF Done:  E(RHF) =  -79.2041199747     A.U. after    7 cycles
 E2 =    -0.1787721470D+00 EUMP2 =    -0.79382892121674D+02
 Optimization completed.
    -- Stationary point found.

                         Standard orientation:
 ---------------------------------------------------------------------
 Center     Atomic      Atomic             Coordinates (Angstroms)
 Number     Number       Type             X           Y           Z
 ---------------------------------------------------------------------
      1          6           0       -0.779823    0.040341   -0.000001
      2          6           0        0.779823   -0.040341    0.000001
      3          1           0       -1.156527    0.398168    0.975138
      4          1           0       -1.226338   -0.951355   -0.194951
      5          1           0       -1.139082    0.735380   -0.780190
      6          1           0        1.139082   -0.735380    0.780190
      7          1           0        1.226338    0.951355    0.194951
      8          1           0        1.156527   -0.398168   -0.975138
 ---------------------------------------------------------------------

 The electronic state is 1-AG.
 Alpha  occ. eigenvalues --  -11.21964 -11.21912  -1.00907  -0.83992  -0.58983
 Alpha  occ. eigenvalues --   -0.58983  -0.49822  -0.48296  -0.48296
 Alpha virt. eigenvalues --    0.24933   0.27160   0.32141   0.32141   0.36070
 Alpha virt. eigenvalues --    0.36070   0.39083   0.45639   0.46872   0.46872
 Alpha virt. eigenvalues --    0.51903   0.51903   0.72599   1.15755   1.28436

 Mulliken charges:
               1
     1  C   -0.500739
     2  C   -0.500739
     3  H    0.166913
     4  H    0.166913
     5  H    0.166913
     6  H    0.166913
     7  H    0.166913
     8  H    0.166913
 Sum of Mulliken charges =   0.00000

 Dipole moment (field-independent basis, Debye):
    X=              0.0000    Y=              0.0000    Z=              0.0000  Tot=              0.0000
 Quadrupole moment (field-independent basis, Debye-Ang):
   XX=            -15.6316   YY=            -15.0314   ZZ=            -15.0298
   XY=              0.0311   XZ=              0.0000   YZ=              0.0000

 Normal termination of Gaussian 09 at Tue Feb 21 17:41:19 2017.
