 Gaussian 09, Revision E.01,
 Gaussian 09:  ES64L-G09RevE.01 30-Nov-2015

 -----------------
 #n MP2/STO-3G Opt
 -----------------

 -----------------
 Ethane MP2 STO-3G
 -----------------
 Symbolic Z-matrix:
 Charge =  0 Multiplicity = 1

 SCF Done:  E(RHF) =  -78.3059325475     A.U. after    7 cycles
 E2 =    -0.1065503226D+00 EUMP2 =    -0.78412482870140D+02
 SCF Done:  E(RHF) =  -78.3037971999     A.U. after    6 cycles
 E2 =    -0.1094462861D+00 EUMP2 =    -0.78413243485992D+02
 SCF Done:  E(RHF) =  -78.3044730828     A.U. after    6 cycles
 E2 =    -0.1088577658D+00 EUMP2 =    -0.78413330848626D+02
 SCF Done:  E(RHF) =  -78.3045269570     A.U. after    6 cycles
 E2 =    -0.1088048907D+00 EUMP2 =    -0.78413331847726D+02
 Optimization completed.
    -- Stationary point found.

                         Standard orientation:
 ---------------------------------------------------------------------
 Center     Atomic      Atomic             Coordinates (Angstroms)
 Number     Number       Type             X           Y           Z
 ---------------------------------------------------------------------
      1          6           0       -0.776668    0.040178   -0.000001
      2          6           0        0.776668   -0.040178    0.000001
      3          1           0       -1.149663    0.397637    0.974633
      4          1           0       -1.219438   -0.951187   -0.194850
      5          1           0       -1.132227    0.734675   -0.779786
      6          1           0        1.132227   -0.734675    0.779786
      7          1           0        1.219438    0.951187    0.194850
      8          1           0        1.149663   -0.397637   -0.974633
 ---------------------------------------------------------------------

 The electronic state is 1-AG.
 Alpha  occ. eigenvalues --  -11.03691 -11.03657  -0.97097  -0.80481  -0.56342
 Alpha  occ. eigenvalues --   -0.56342  -0.46515  -0.45566  -0.45566
 Alpha virt. eigenvalues --    0.64189   0.64189   0.67203   0.71608   0.75403
 Alpha virt. eigenvalues --    0.77161   0.77161

 Mulliken charges:
               1
     1  C   -0.162206
     2  C   -0.162206
     3  H    0.054069
     4  H    0.054069
     5  H    0.054069
     6  H    0.054069
     7  H    0.054069
     8  H    0.054069
 Sum of Mulliken charges =   0.00000

 Dipole moment (field-independent basis, Debye):
    X=              0.0000    Y=              0.0000    Z=              0.0000  Tot=              0.0000
 Quadrupole moment (field-independent basis, Debye-Ang):
   XX=            -14.4171   YY=            -14.0405   ZZ=            -14.0394
   XY=              0.0195   XZ=              0.0000   YZ=              0.0000

 Normal termination of Gaussian 09 at Tue Feb 21 17:42:06 2017.
