 Gaussian 09, Revision E.01,
 Gaussian 09:  ES64L-G09RevE.01 30-Nov-2015

 --------------------
 #n B3LYP/LANL2DZ Opt
 --------------------

 -----
 Title
 -----
 Symbolic Z-matrix:
 Charge =  0 Multiplicity = 1

 SCF Done:  E(RB3LYP) =  -78.5774093844     A.U. after   10 cycles
 SCF Done:  E(RB3LYP) =  -78.5781940943     A.U. after    9 cycles
 SCF Done:  E(RB3LYP) =  -78.5782086270     A.U. after    6 cycles
 Optimization completed.
    -- Stationary point found.

                         Standard orientation:
 ---------------------------------------------------------------------
 Center     Atomic      Atomic             Coordinates (Angstroms)
 Number     Number       Type             X           Y           Z
 ---------------------------------------------------------------------
      1          6           0        0.674180    0.000000    0.000000
      2          6           0       -0.674180    0.000000    0.000000
      3          1           0        1.246353   -0.925875    0.000000
      4          1           0        1.246353    0.925875    0.000001
      5          1           0       -1.246355   -0.925874    0.000001
      6          1           0       -1.246354    0.925875    0.000000
 ---------------------------------------------------------------------

 The electronic state is 1-A.
 Alpha  occ. eigenvalues --  -10.19411 -10.19335  -0.76075  -0.58213  -0.46957
 Alpha  occ. eigenvalues --   -0.42165  -0.35785  -0.27274
 Alpha virt. eigenvalues --   -0.00080   0.13468   0.14872   0.19832   0.25561
 Alpha virt. eigenvalues --    0.26171   0.29254   0.31657   0.31691   0.40190
 Alpha virt. eigenvalues --    0.51534   0.60544   0.61060   0.99469   1.04729

 Mulliken charges:
               1
     1  C   -0.408036
     2  C   -0.408036
     3  H    0.204018
     4  H    0.204018
     5  H    0.204018
     6  H    0.204018
 Sum of Mulliken charges =   0.00000

 Dipole moment (field-independent basis, Debye):
    X=              0.0000    Y=              0.0000    Z=              0.0000  Tot=              0.0000
 Quadrupole moment (field-independent basis, Debye-Ang):
   XX=            -11.7722   YY=            -11.8901   ZZ=            -15.7098
   XY=              0.0000   XZ=              0.0000   YZ=              0.0000

 Normal termination of Gaussian 09 at Fri Feb 24 00:13:07 2017.
