 Gaussian 09, Revision E.01,
 Gaussian 09:  ES64L-G09RevE.01 30-Nov-2015

 ------------------
 #n MP2/LANL2DZ Opt
 ------------------

 -----
 Title
 -----
 Symbolic Z-matrix:
 Charge =  0 Multiplicity = 1

 SCF Done:  E(RHF) =  -78.0110657170     A.U. after    9 cycles
 E2 =    -0.1692340252D+00 EUMP2 =    -0.78180299742202D+02
 SCF Done:  E(RHF) =  -78.0090427969     A.U. after    8 cycles
 E2 =    -0.1735756720D+00 EUMP2 =    -0.78182618468978D+02
 SCF Done:  E(RHF) =  -78.0093723783     A.U. after    7 cycles
 E2 =    -0.1732744985D+00 EUMP2 =    -0.78182646876727D+02
 Optimization completed.
    -- Stationary point found.

                         Standard orientation:
 ---------------------------------------------------------------------
 Center     Atomic      Atomic             Coordinates (Angstroms)
 Number     Number       Type             X           Y           Z
 ---------------------------------------------------------------------
      1          6           0        0.683809    0.000000    0.000000
      2          6           0       -0.683808    0.000000    0.000000
      3          1           0        1.257334   -0.931772    0.000000
      4          1           0        1.257334    0.931772    0.000001
      5          1           0       -1.257335   -0.931772    0.000001
      6          1           0       -1.257334    0.931772    0.000000
 ---------------------------------------------------------------------

 The electronic state is 1-A.
 Alpha  occ. eigenvalues --  -11.24852 -11.24713  -1.02824  -0.79334  -0.63949
 Alpha  occ. eigenvalues --   -0.58250  -0.50606  -0.36958
 Alpha virt. eigenvalues --    0.13928   0.25938   0.28732   0.36006   0.39511
 Alpha virt. eigenvalues --    0.41652   0.44422   0.48041   0.49350   0.60840
 Alpha virt. eigenvalues --    0.67157   0.79064   0.86172   1.21868   1.31399

 Mulliken charges:
               1
     1  C   -0.357944
     2  C   -0.357944
     3  H    0.178972
     4  H    0.178972
     5  H    0.178972
     6  H    0.178972
 Sum of Mulliken charges =   0.00000

 Dipole moment (field-independent basis, Debye):
    X=              0.0000    Y=              0.0000    Z=              0.0000  Tot=              0.0000
 Quadrupole moment (field-independent basis, Debye-Ang):
   XX=            -12.0922   YY=            -12.3457   ZZ=            -16.4150
   XY=              0.0000   XZ=              0.0000   YZ=              0.0000

 Normal termination of Gaussian 09 at Fri Feb 24 00:14:01 2017.
