 Gaussian 09, Revision E.01,
 Gaussian 09:  ES64L-G09RevE.01 30-Nov-2015

 -------------------
 #n CCSD/LANL2DZ Opt
 -------------------

 -------------------
 CH3_CCSD/6-31G(d,p)
 -------------------
 Symbolic Z-matrix:
 Charge =  0 Multiplicity = 1

 SCF Done:  E(RHF) =  -79.2056342048     A.U. after    9 cycles
 E2 =    -0.1761780889D+00 EUMP2 =    -0.79381812293707D+02
 SCF Done:  E(RHF) =  -79.2031808091     A.U. after    8 cycles
 E2 =    -0.1795944944D+00 EUMP2 =    -0.79382775303436D+02
 SCF Done:  E(RHF) =  -79.2032837626     A.U. after    7 cycles
 E2 =    -0.1795276742D+00 EUMP2 =    -0.79382811436786D+02
 Optimization completed.
    -- Stationary point found.

                         Standard orientation:
 ---------------------------------------------------------------------
 Center     Atomic      Atomic             Coordinates (Angstroms)
 Number     Number       Type             X           Y           Z
 ---------------------------------------------------------------------
      1          6           0       -0.418331    0.661328    0.000000
      2          6           0        0.418331   -0.661328    0.000000
      3          1           0       -1.368239    0.529135    0.557356
      4          1           0       -0.668917    0.971500   -1.035107
      5          1           0        0.146930    1.487573    0.477752
      6          1           0       -0.146930   -1.487573   -0.477752
      7          1           0        0.668917   -0.971500    1.035107
      8          1           0        1.368239   -0.529135   -0.557356
 ---------------------------------------------------------------------

 The electronic state is 1-AG.
 Alpha  occ. eigenvalues --  -11.22154 -11.22103  -1.00735  -0.83847  -0.58849
 Alpha  occ. eigenvalues --   -0.58849  -0.49750  -0.48225  -0.48225
 Alpha virt. eigenvalues --    0.24885   0.27044   0.32086   0.32086   0.35889
 Alpha virt. eigenvalues --    0.35889   0.38871   0.45685   0.46892   0.46892
 Alpha virt. eigenvalues --    0.51851   0.51851   0.72253   1.15476   1.27984

 Mulliken charges:
               1
     1  C   -0.498925
     2  C   -0.498925
     3  H    0.166308
     4  H    0.166308
     5  H    0.166308
     6  H    0.166308
     7  H    0.166308
     8  H    0.166308
 Sum of Mulliken charges =   0.00000

 Dipole moment (field-independent basis, Debye):
    X=              0.0000    Y=              0.0000    Z=              0.0000  Tot=              0.0000
 Quadrupole moment (field-independent basis, Debye-Ang):
   XX=            -15.2297   YY=            -15.4895   ZZ=            -15.0564
   XY=              0.2740   XZ=              0.0000   YZ=              0.0000

 Normal termination of Gaussian 09 at Thu Feb 23 18:27:26 2017.
