 Gaussian 09, Revision E.01,
 Gaussian 09:  ES64L-G09RevE.01 30-Nov-2015

 --------------------
 #n B3LYP/LANL2DZ Opt
 --------------------

 --------------------
 CH3_B3LYP/6-31G(d,p)
 --------------------
 Symbolic Z-matrix:
 Charge =  0 Multiplicity = 1

 SCF Done:  E(RB3LYP) =  -79.8185633516     A.U. after   10 cycles
 SCF Done:  E(RB3LYP) =  -79.8188578299     A.U. after    9 cycles
 SCF Done:  E(RB3LYP) =  -79.8188746400     A.U. after    6 cycles
 SCF Done:  E(RB3LYP) =  -79.8188756096     A.U. after    5 cycles
 Optimization completed.
    -- Stationary point found.

                         Standard orientation:
 ---------------------------------------------------------------------
 Center     Atomic      Atomic             Coordinates (Angstroms)
 Number     Number       Type             X           Y           Z
 ---------------------------------------------------------------------
      1          6           0       -0.412596    0.652233    0.000014
      2          6           0        0.412596   -0.652233   -0.000014
      3          1           0       -1.353749    0.525109    0.550923
      4          1           0       -0.662491    0.962376   -1.023141
      5          1           0        0.143903    1.472492    0.472216
      6          1           0       -0.143903   -1.472492   -0.472216
      7          1           0        0.662491   -0.962376    1.023141
      8          1           0        1.353749   -0.525109   -0.550923
 ---------------------------------------------------------------------

 The electronic state is 1-AG.
 Alpha  occ. eigenvalues --  -10.17091 -10.17073  -0.74566  -0.61257  -0.42905
 Alpha  occ. eigenvalues --   -0.42903  -0.36056  -0.33924  -0.33923
 Alpha virt. eigenvalues --    0.12579   0.13515   0.19581   0.19583   0.21660
 Alpha virt. eigenvalues --    0.21662   0.24032   0.29174   0.29258   0.29259
 Alpha virt. eigenvalues --    0.32903   0.32904   0.48550   0.91744   1.03747

 Mulliken charges:
               1
     1  C   -0.590034
     2  C   -0.590034
     3  H    0.196683
     4  H    0.196674
     5  H    0.196677
     6  H    0.196677
     7  H    0.196674
     8  H    0.196683
 Sum of Mulliken charges =   0.00000

 Dipole moment (field-independent basis, Debye):
    X=              0.0000    Y=              0.0000    Z=              0.0000  Tot=              0.0000
 Quadrupole moment (field-independent basis, Debye-Ang):
   XX=            -14.7036   YY=            -14.9163   ZZ=            -14.5618
   XY=              0.2244   XZ=             -0.0002   YZ=             -0.0001

 Normal termination of Gaussian 09 at Thu Feb 23 18:24:50 2017.
