 Gaussian 09, Revision E.01,
 Gaussian 09:  ES64L-G09RevE.01 30-Nov-2015

 --------------------
 #n M062X/LANL2DZ Opt
 --------------------

 --------------------
 CH3_M062X/6-31G(d,p)
 --------------------
 Symbolic Z-matrix:
 Charge =  0 Multiplicity = 1

 SCF Done:  E(RM062X) =  -79.7643405403     A.U. after   11 cycles
 SCF Done:  E(RM062X) =  -79.7644800478     A.U. after   10 cycles
 SCF Done:  E(RM062X) =  -79.7644928144     A.U. after    6 cycles
 Optimization completed.
    -- Stationary point found.

                         Standard orientation:
 ---------------------------------------------------------------------
 Center     Atomic      Atomic             Coordinates (Angstroms)
 Number     Number       Type             X           Y           Z
 ---------------------------------------------------------------------
      1          6           0       -0.411378    0.650447    0.000014
      2          6           0        0.411378   -0.650447   -0.000014
      3          1           0       -1.349572    0.522208    0.549663
      4          1           0       -0.659960    0.958237   -1.020919
      5          1           0        0.144751    1.467395    0.471370
      6          1           0       -0.144751   -1.467395   -0.471370
      7          1           0        0.659960   -0.958237    1.020919
      8          1           0        1.349572   -0.522208   -0.549663
 ---------------------------------------------------------------------

 The electronic state is 1-AG.
 Alpha  occ. eigenvalues --  -10.53094 -10.53062  -0.84130  -0.69650  -0.49774
 Alpha  occ. eigenvalues --   -0.49766  -0.42050  -0.39918  -0.39910
 Alpha virt. eigenvalues --    0.16970   0.18173   0.23397   0.23401   0.26429
 Alpha virt. eigenvalues --    0.26434   0.28997   0.33886   0.34064   0.34069
 Alpha virt. eigenvalues --    0.38637   0.38641   0.55162   0.97150   1.10332

 Mulliken charges:
               1
     1  C   -0.595083
     2  C   -0.595083
     3  H    0.198359
     4  H    0.198357
     5  H    0.198366
     6  H    0.198366
     7  H    0.198357
     8  H    0.198359
 Sum of Mulliken charges =   0.00000

 Dipole moment (field-independent basis, Debye):
    X=              0.0000    Y=              0.0000    Z=              0.0000  Tot=              0.0000
 Quadrupole moment (field-independent basis, Debye-Ang):
   XX=            -14.8174   YY=            -15.0437   ZZ=            -14.6661
   XY=              0.2378   XZ=              0.0008   YZ=              0.0013

 Normal termination of Gaussian 09 at Thu Feb 23 18:28:09 2017.
