 Gaussian 09, Revision E.01,
 Gaussian 09:  ES64L-G09RevE.01 30-Nov-2015

 ------------------
 #n MP2/LANL2DZ Opt
 ------------------

 ------------------
 CH3_MP2/6-31G(d,p)
 ------------------
 Symbolic Z-matrix:
 Charge =  0 Multiplicity = 1

 SCF Done:  E(RHF) =  -79.2056342048     A.U. after    9 cycles
 E2 =    -0.1761780889D+00 EUMP2 =    -0.79381812293707D+02
 SCF Done:  E(RHF) =  -79.2039776597     A.U. after    7 cycles
 E2 =    -0.1788782634D+00 EUMP2 =    -0.79382855923123D+02
 SCF Done:  E(RHF) =  -79.2041199918     A.U. after    7 cycles
 E2 =    -0.1787721305D+00 EUMP2 =    -0.79382892122246D+02
 Optimization completed.
    -- Stationary point found.

                         Standard orientation:
 ---------------------------------------------------------------------
 Center     Atomic      Atomic             Coordinates (Angstroms)
 Number     Number       Type             X           Y           Z
 ---------------------------------------------------------------------
      1          6           0       -0.417440    0.659920    0.000000
      2          6           0        0.417440   -0.659920    0.000000
      3          1           0       -1.363672    0.528392    0.555147
      4          1           0       -0.667122    0.969004   -1.031003
      5          1           0        0.145490    1.483031    0.475857
      6          1           0       -0.145490   -1.483031   -0.475857
      7          1           0        0.667122   -0.969004    1.031003
      8          1           0        1.363672   -0.528392   -0.555147
 ---------------------------------------------------------------------

 The electronic state is 1-AG.
 Alpha  occ. eigenvalues --  -11.21964 -11.21912  -1.00907  -0.83992  -0.58983
 Alpha  occ. eigenvalues --   -0.58983  -0.49822  -0.48296  -0.48296
 Alpha virt. eigenvalues --    0.24933   0.27160   0.32141   0.32141   0.36070
 Alpha virt. eigenvalues --    0.36070   0.39083   0.45639   0.46872   0.46872
 Alpha virt. eigenvalues --    0.51903   0.51903   0.72599   1.15755   1.28436

 Mulliken charges:
               1
     1  C   -0.500739
     2  C   -0.500739
     3  H    0.166913
     4  H    0.166913
     5  H    0.166913
     6  H    0.166913
     7  H    0.166913
     8  H    0.166913
 Sum of Mulliken charges =   0.00000

 Dipole moment (field-independent basis, Debye):
    X=              0.0000    Y=              0.0000    Z=              0.0000  Tot=              0.0000
 Quadrupole moment (field-independent basis, Debye-Ang):
   XX=            -15.2023   YY=            -15.4608   ZZ=            -15.0298
   XY=              0.2726   XZ=              0.0000   YZ=              0.0000

 Normal termination of Gaussian 09 at Thu Feb 23 18:26:29 2017.
