 Gaussian 09, Revision E.01,
 Gaussian 09:  ES64L-G09RevE.01 30-Nov-2015

 --------------------
 #n B3LYP/LANL2DZ Opt
 --------------------

 -------------------
 CH_B3LYP/6-31G(d,p)
 -------------------
 Symbolic Z-matrix:
 Charge =  0 Multiplicity = 1

 SCF Done:  E(RB3LYP) =  -77.3169007151     A.U. after    9 cycles
 SCF Done:  E(RB3LYP) =  -77.3175811038     A.U. after    9 cycles
 SCF Done:  E(RB3LYP) =  -77.3175849151     A.U. after    7 cycles
 Optimization completed.
    -- Stationary point found.

                         Standard orientation:
 ---------------------------------------------------------------------
 Center     Atomic      Atomic             Coordinates (Angstroms)
 Number     Number       Type             X           Y           Z
 ---------------------------------------------------------------------
      1          6           0        0.000000    0.000000    0.611138
      2          6           0        0.000000    0.000000   -0.611138
      3          1           0        0.000000    0.000000    1.678968
      4          1           0        0.000000    0.000000   -1.678968
 ---------------------------------------------------------------------

 The electronic state is 1-SG.
 Alpha  occ. eigenvalues --  -10.21354 -10.21145  -0.75967  -0.57287  -0.50227
 Alpha  occ. eigenvalues --   -0.29535  -0.29535
 Alpha virt. eigenvalues --    0.02542   0.02542   0.10258   0.17765   0.22601
 Alpha virt. eigenvalues --    0.30340   0.30340   0.41458   0.41458   0.45975
 Alpha virt. eigenvalues --    0.50095   0.82793   1.00482   1.22724   1.44924

 Mulliken charges:
               1
     1  C   -0.275730
     2  C   -0.275730
     3  H    0.275730
     4  H    0.275730
 Sum of Mulliken charges =   0.00000

 Dipole moment (field-independent basis, Debye):
    X=              0.0000    Y=              0.0000    Z=              0.0000  Tot=              0.0000
 Quadrupole moment (field-independent basis, Debye-Ang):
   XX=            -13.5700   YY=            -13.5700   ZZ=             -6.5418
   XY=              0.0000   XZ=              0.0000   YZ=              0.0000

 Normal termination of Gaussian 09 at Thu Feb 23 18:16:33 2017.
