 Gaussian 09, Revision E.01,
 Gaussian 09:  ES64L-G09RevE.01 30-Nov-2015

 -------------------
 #n CCSD/LANL2DZ Opt
 -------------------

 ------------------
 CH_CCSD/6-31G(d,p)
 ------------------
 Symbolic Z-matrix:
 Charge =  0 Multiplicity = 1

 SCF Done:  E(RHF) =  -76.7987846997     A.U. after    9 cycles
 E2 =    -0.1760595973D+00 EUMP2 =    -0.76974844297006D+02
 SCF Done:  E(RHF) =  -76.7950140804     A.U. after    8 cycles
 E2 =    -0.1829513695D+00 EUMP2 =    -0.76977965449928D+02
 SCF Done:  E(RHF) =  -76.7952464929     A.U. after    6 cycles
 E2 =    -0.1826901709D+00 EUMP2 =    -0.76977936663850D+02
 Optimization completed.
    -- Stationary point found.

                         Standard orientation:
 ---------------------------------------------------------------------
 Center     Atomic      Atomic             Coordinates (Angstroms)
 Number     Number       Type             X           Y           Z
 ---------------------------------------------------------------------
      1          6           0        0.000000    0.000000    0.619706
      2          6           0        0.000000    0.000000   -0.619706
      3          1           0        0.000000    0.000000    1.695138
      4          1           0        0.000000    0.000000   -1.695138
 ---------------------------------------------------------------------

 The electronic state is 1-SG.
 Alpha  occ. eigenvalues --  -11.27070 -11.26773  -1.03021  -0.76490  -0.67703
 Alpha  occ. eigenvalues --   -0.40632  -0.40632
 Alpha virt. eigenvalues --    0.16590   0.16590   0.23502   0.34323   0.34988
 Alpha virt. eigenvalues --    0.46848   0.46848   0.60981   0.62283   0.62283
 Alpha virt. eigenvalues --    0.65366   1.06409   1.23528   1.48564   1.72874

 Mulliken charges:
               1
     1  C   -0.263770
     2  C   -0.263771
     3  H    0.263770
     4  H    0.263771
 Sum of Mulliken charges =   0.00000

 Dipole moment (field-independent basis, Debye):
    X=              0.0000    Y=              0.0000    Z=              0.0000  Tot=              0.0000
 Quadrupole moment (field-independent basis, Debye-Ang):
   XX=            -14.1982   YY=            -14.1982   ZZ=             -6.6058
   XY=              0.0000   XZ=              0.0000   YZ=              0.0000

 Normal termination of Gaussian 09 at Thu Feb 23 18:19:05 2017.
