 Gaussian 09, Revision E.01,
 Gaussian 09:  ES64L-G09RevE.01 30-Nov-2015

 --------------------
 #n M062X/LANL2DZ Opt
 --------------------

 -------------------
 CH_M062X/6-31G(d,p)
 -------------------
 Symbolic Z-matrix:
 Charge =  0 Multiplicity = 1

 SCF Done:  E(RM062X) =  -77.2800927144     A.U. after   12 cycles
 SCF Done:  E(RM062X) =  -77.2804648328     A.U. after   11 cycles
 SCF Done:  E(RM062X) =  -77.2804683578     A.U. after    6 cycles
 Optimization completed.
    -- Stationary point found.

                         Standard orientation:
 ---------------------------------------------------------------------
 Center     Atomic      Atomic             Coordinates (Angstroms)
 Number     Number       Type             X           Y           Z
 ---------------------------------------------------------------------
      1          6           0        0.000000    0.000000    0.608434
      2          6           0        0.000000    0.000000   -0.608434
      3          1           0        0.000000    0.000000    1.675492
      4          1           0        0.000000    0.000000   -1.675492
 ---------------------------------------------------------------------

 The electronic state is 1-SGG.
 Alpha  occ. eigenvalues --  -10.57494 -10.57253  -0.85342  -0.64410  -0.56594
 Alpha  occ. eigenvalues --   -0.35432  -0.35432
 Alpha virt. eigenvalues --    0.07271   0.07271   0.15381   0.23434   0.26702
 Alpha virt. eigenvalues --    0.35139   0.35139   0.47541   0.47541   0.49999
 Alpha virt. eigenvalues --    0.53772   0.88730   1.05815   1.29665   1.50546

 Mulliken charges:
               1
     1  C   -0.277573
     2  C   -0.277573
     3  H    0.277573
     4  H    0.277573
 Sum of Mulliken charges =   0.00000

 Dipole moment (field-independent basis, Debye):
    X=              0.0000    Y=              0.0000    Z=              0.0000  Tot=              0.0000
 Quadrupole moment (field-independent basis, Debye-Ang):
   XX=            -13.6480   YY=            -13.6480   ZZ=             -6.5786
   XY=              0.0000   XZ=              0.0000   YZ=              0.0000

 Normal termination of Gaussian 09 at Thu Feb 23 18:19:48 2017.
