 Gaussian 09, Revision E.01,
 Gaussian 09:  ES64L-G09RevE.01 30-Nov-2015

 ------------------
 #n MP2/LANL2DZ Opt
 ------------------

 -----------------
 CH_MP2/6-31G(d,p)
 -----------------
 Symbolic Z-matrix:
 Charge =  0 Multiplicity = 1

 SCF Done:  E(RHF) =  -76.7987846997     A.U. after    9 cycles
 E2 =    -0.1760595973D+00 EUMP2 =    -0.76974844297006D+02
 SCF Done:  E(RHF) =  -76.7943632996     A.U. after    8 cycles
 E2 =    -0.1836681932D+00 EUMP2 =    -0.76978031492864D+02
 SCF Done:  E(RHF) =  -76.7943870072     A.U. after    6 cycles
 E2 =    -0.1836448054D+00 EUMP2 =    -0.76978031812683D+02
 Optimization completed.
    -- Stationary point found.

                         Standard orientation:
 ---------------------------------------------------------------------
 Center     Atomic      Atomic             Coordinates (Angstroms)
 Number     Number       Type             X           Y           Z
 ---------------------------------------------------------------------
      1          6           0        0.000000    0.000000    0.623030
      2          6           0        0.000000    0.000000   -0.623030
      3          1           0        0.000000    0.000000    1.694892
      4          1           0        0.000000    0.000000   -1.694892
 ---------------------------------------------------------------------

 The electronic state is 1-SG.
 Alpha  occ. eigenvalues --  -11.27217 -11.26931  -1.02842  -0.76746  -0.67822
 Alpha  occ. eigenvalues --   -0.40498  -0.40498
 Alpha virt. eigenvalues --    0.16407   0.16407   0.23471   0.34484   0.34906
 Alpha virt. eigenvalues --    0.46937   0.46937   0.60870   0.62073   0.62073
 Alpha virt. eigenvalues --    0.65357   1.05470   1.23582   1.48879   1.72385

 Mulliken charges:
               1
     1  C   -0.264918
     2  C   -0.264918
     3  H    0.264918
     4  H    0.264918
 Sum of Mulliken charges =   0.00000

 Dipole moment (field-independent basis, Debye):
    X=              0.0000    Y=              0.0000    Z=              0.0000  Tot=              0.0000
 Quadrupole moment (field-independent basis, Debye-Ang):
   XX=            -14.2279   YY=            -14.2279   ZZ=             -6.6022
   XY=              0.0000   XZ=              0.0000   YZ=              0.0000

 Normal termination of Gaussian 09 at Thu Feb 23 18:18:09 2017.
