 Gaussian 09, Revision E.01,
 Gaussian 09:  ES64L-G09RevE.01 30-Nov-2015

 --------------------
 #n B3LYP/LANL2DZ Opt
 --------------------

 -----
 Title
 -----
 Symbolic Z-matrix:
 Charge =  0 Multiplicity = 1

 SCF Done:  E(RB3LYP) =  -1.12974393998     A.U. after    5 cycles
 SCF Done:  E(RB3LYP) =  -1.15645756945     A.U. after    6 cycles
 SCF Done:  E(RB3LYP) =  -1.17402849138     A.U. after    7 cycles
 SCF Done:  E(RB3LYP) =  -1.17441593325     A.U. after    4 cycles
 SCF Done:  E(RB3LYP) =  -1.17441643432     A.U. after    3 cycles
 Optimization completed.
    -- Stationary point found.

                         Standard orientation:
 ---------------------------------------------------------------------
 Center     Atomic      Atomic             Coordinates (Angstroms)
 Number     Number       Type             X           Y           Z
 ---------------------------------------------------------------------
      1          1           0        0.000000    0.000000    0.371739
      2          1           0        0.000000    0.000000   -0.371739
 ---------------------------------------------------------------------

 The electronic state is 1-SGG.
 Alpha  occ. eigenvalues --   -0.42898
 Alpha virt. eigenvalues --    0.11559   0.65084   1.18000

 Mulliken charges:
               1
     1  H    0.000000
     2  H    0.000000
 Sum of Mulliken charges =   0.00000

 Dipole moment (field-independent basis, Debye):
    X=              0.0000    Y=              0.0000    Z=              0.0000  Tot=              0.0000
 Quadrupole moment (field-independent basis, Debye-Ang):
   XX=             -1.9356   YY=             -1.9356   ZZ=             -1.5043
   XY=              0.0000   XZ=              0.0000   YZ=              0.0000

 Normal termination of Gaussian 09 at Fri Feb 24 00:03:29 2017.
