 Gaussian 09, Revision E.01,
 Gaussian 09:  ES64L-G09RevE.01 30-Nov-2015

 -------------------
 #n CCSD/LANL2DZ Opt
 -------------------

 -----
 Title
 -----
 Symbolic Z-matrix:
 Charge =  0 Multiplicity = 1

 SCF Done:  E(RHF) =  -1.07515878104     A.U. after    4 cycles
 E2 =    -0.2182479097D-01 EUMP2 =    -0.10969835720108D+01
 SCF Done:  E(RHF) =  -1.10499744051     A.U. after    4 cycles
 E2 =    -0.1958526148D-01 EUMP2 =    -0.11245827019925D+01
 SCF Done:  E(RHF) =  -1.12662463623     A.U. after    5 cycles
 E2 =    -0.1728018767D-01 EUMP2 =    -0.11439048238931D+01
 SCF Done:  E(RHF) =  -1.12646156146     A.U. after    4 cycles
 E2 =    -0.1738425897D-01 EUMP2 =    -0.11438458204331D+01
 Optimization completed.
    -- Stationary point found.

                         Standard orientation:
 ---------------------------------------------------------------------
 Center     Atomic      Atomic             Coordinates (Angstroms)
 Number     Number       Type             X           Y           Z
 ---------------------------------------------------------------------
      1          1           0        0.000000    0.000000    0.373819
      2          1           0        0.000000    0.000000   -0.373819
 ---------------------------------------------------------------------

 The electronic state is 1-SGG.
 Alpha  occ. eigenvalues --   -0.59070
 Alpha virt. eigenvalues --    0.25784   0.85634   1.47200

 Mulliken charges:
               1
     1  H    0.000000
     2  H    0.000000
 Sum of Mulliken charges =   0.00000

 Dipole moment (field-independent basis, Debye):
    X=              0.0000    Y=              0.0000    Z=              0.0000  Tot=              0.0000
 Quadrupole moment (field-independent basis, Debye-Ang):
   XX=             -1.9770   YY=             -1.9770   ZZ=             -1.5387
   XY=              0.0000   XZ=              0.0000   YZ=              0.0000

 Normal termination of Gaussian 09 at Fri Feb 24 00:05:15 2017.
