 Gaussian 09, Revision E.01,
 Gaussian 09:  ES64L-G09RevE.01 30-Nov-2015

 ------------------
 #n MP2/LANL2DZ Opt
 ------------------

 -----
 Title
 -----
 Symbolic Z-matrix:
 Charge =  0 Multiplicity = 1

 SCF Done:  E(RHF) =  -1.07515878104     A.U. after    4 cycles
 E2 =    -0.2182479097D-01 EUMP2 =    -0.10969835720108D+01
 SCF Done:  E(RHF) =  -1.10499744051     A.U. after    4 cycles
 E2 =    -0.1958526148D-01 EUMP2 =    -0.11245827019925D+01
 SCF Done:  E(RHF) =  -1.12644965622     A.U. after    5 cycles
 E2 =    -0.1703553727D-01 EUMP2 =    -0.11434851934932D+01
 SCF Done:  E(RHF) =  -1.12660851809     A.U. after    4 cycles
 E2 =    -0.1729594369D-01 EUMP2 =    -0.11439044617751D+01
 SCF Done:  E(RHF) =  -1.12661882897     A.U. after    3 cycles
 E2 =    -0.1728622591D-01 EUMP2 =    -0.11439050548816D+01
 Optimization completed.
    -- Stationary point found.

                         Standard orientation:
 ---------------------------------------------------------------------
 Center     Atomic      Atomic             Coordinates (Angstroms)
 Number     Number       Type             X           Y           Z
 ---------------------------------------------------------------------
      1          1           0        0.000000    0.000000    0.369175
      2          1           0        0.000000    0.000000   -0.369175
 ---------------------------------------------------------------------

 The electronic state is 1-SGG.
 Alpha  occ. eigenvalues --   -0.59354
 Alpha virt. eigenvalues --    0.26051   0.85142   1.48421

 Mulliken charges:
               1
     1  H    0.000000
     2  H    0.000000
 Sum of Mulliken charges =   0.00000

 Dipole moment (field-independent basis, Debye):
    X=              0.0000    Y=              0.0000    Z=              0.0000  Tot=              0.0000
 Quadrupole moment (field-independent basis, Debye-Ang):
   XX=             -1.9640   YY=             -1.9640   ZZ=             -1.5352
   XY=              0.0000   XZ=              0.0000   YZ=              0.0000

 Normal termination of Gaussian 09 at Fri Feb 24 00:04:21 2017.
