 Gaussian 09, Revision A.02,
 Gaussian 09:  EM64L-G09RevA.02 11-Jun-2009

 --------------------------------------
 # opt M062X/6-311+G* geom=connectivity
 --------------------------------------

 -------------------
 Title Card Required
 -------------------
 Symbolic Z-matrix:
 Charge =  0 Multiplicity = 1

 SCF Done:  E(RM062X) =  -883.224119199     A.U. after   17 cycles
 SCF Done:  E(RM062X) =  -883.272103983     A.U. after   18 cycles
 SCF Done:  E(RM062X) =  -883.341629159     A.U. after   15 cycles
 SCF Done:  E(RM062X) =  -883.382032030     A.U. after   16 cycles
 SCF Done:  E(RM062X) =  -883.415820396     A.U. after   14 cycles
 SCF Done:  E(RM062X) =  -883.436708832     A.U. after   15 cycles
 SCF Done:  E(RM062X) =  -883.458153300     A.U. after   14 cycles
 SCF Done:  E(RM062X) =  -883.471785698     A.U. after   13 cycles
 SCF Done:  E(RM062X) =  -883.478141759     A.U. after   13 cycles
 SCF Done:  E(RM062X) =  -883.479483273     A.U. after   12 cycles
 SCF Done:  E(RM062X) =  -883.483868180     A.U. after   12 cycles
 SCF Done:  E(RM062X) =  -883.483912853     A.U. after   11 cycles
 SCF Done:  E(RM062X) =  -883.483928080     A.U. after   11 cycles
 SCF Done:  E(RM062X) =  -883.483939241     A.U. after   11 cycles
 SCF Done:  E(RM062X) =  -883.483946135     A.U. after   12 cycles
 SCF Done:  E(RM062X) =  -883.483947410     A.U. after   11 cycles
 SCF Done:  E(RM062X) =  -883.483949107     A.U. after   10 cycles
 SCF Done:  E(RM062X) =  -883.483947470     A.U. after   10 cycles
 SCF Done:  E(RM062X) =  -883.483947080     A.U. after    9 cycles
 SCF Done:  E(RM062X) =  -883.483946828     A.U. after    9 cycles
 Optimization completed.
    -- Stationary point found.

                         Standard orientation:
 ---------------------------------------------------------------------
 Center     Atomic      Atomic             Coordinates (Angstroms)
 Number     Number       Type             X           Y           Z
 ---------------------------------------------------------------------
      1          6           0        0.332646   -1.376300   -0.740748
      2          6           0        1.261594   -0.176712    0.847987
      3          6           0        1.661782   -1.632125   -0.746875
      4          1           0        1.396255    0.497648    1.674708
      5          1           0        2.256441   -2.265140   -1.383022
      6          1           0       -0.453971   -1.755143   -1.368223
      7          6           0       -1.117423    0.306472    0.517109
      8          1           0       -1.208184    0.465100    1.594263
      9          1           0       -0.920545    1.274275    0.044093
     10          6           0       -2.371490   -0.354407   -0.028355
     11          1           0       -2.310361   -0.425684   -1.119357
     12          1           0       -2.460049   -1.375401    0.360834
     13          6           0       -3.616941    0.448717    0.343914
     14          1           0       -3.696574    0.510851    1.434404
     15          1           0       -3.504842    1.475874   -0.017337
     16          6           0       -4.888445   -0.166333   -0.231785
     17          1           0       -5.033304   -1.185907    0.134870
     18          1           0       -5.770707    0.414242    0.042930
     19          1           0       -4.845046   -0.208032   -1.322985
     20          6           0        3.640027   -0.623066    0.454972
     21          1           0        4.217554   -1.479249    0.111816
     22          1           0        3.868256    0.274251   -0.123823
     23          1           0        3.850869   -0.444681    1.507855
     24          7           0        0.089699   -0.500437    0.301940
     25          7           0        2.222349   -0.913316    0.291104
     26         17           0        1.707022    2.092105   -0.483509
 ---------------------------------------------------------------------

 The electronic state is 1-A.
 Alpha  occ. eigenvalues -- -102.51525 -14.84489 -14.84266 -10.65715 -10.60923
 Alpha  occ. eigenvalues --  -10.60825 -10.59979 -10.59746 -10.56119 -10.55154
 Alpha  occ. eigenvalues --  -10.53748  -9.65713  -7.37847  -7.37793  -7.37782
 Alpha  occ. eigenvalues --   -1.20110  -1.07698  -0.93398  -0.90816  -0.86956
 Alpha  occ. eigenvalues --   -0.82782  -0.77209  -0.74965  -0.72803  -0.70873
 Alpha  occ. eigenvalues --   -0.68393  -0.65090  -0.60117  -0.57287  -0.56776
 Alpha  occ. eigenvalues --   -0.55163  -0.54930  -0.53417  -0.53125  -0.50941
 Alpha  occ. eigenvalues --   -0.49317  -0.48750  -0.46871  -0.44645  -0.42258
 Alpha  occ. eigenvalues --   -0.41719  -0.40999  -0.37443  -0.33941  -0.25631
 Alpha  occ. eigenvalues --   -0.25442  -0.24852
 Alpha virt. eigenvalues --   -0.00672   0.00521   0.00837   0.01724   0.02323
 Alpha virt. eigenvalues --    0.02627   0.02869   0.03156   0.04396   0.04658
 Alpha virt. eigenvalues --    0.05128   0.06084   0.06288   0.06732   0.07538

 Mulliken atomic charges:
              1
     1  C    0.052259
     2  C   -0.120391
     3  C   -0.693070
     4  H    0.321041
     5  H    0.274644
     6  H    0.281551
     7  C   -0.653368
     8  H    0.254013
     9  H    0.360299
    10  C   -0.444941
    11  H    0.252051
    12  H    0.268107
    13  C   -0.378791
    14  H    0.257587
    15  H    0.274546
    16  C   -1.027772
    17  H    0.256792
    18  H    0.271892
    19  H    0.259152
    20  C   -0.731485
    21  H    0.241668
    22  H    0.350123
    23  H    0.260376
    24  N    0.275739
    25  N    0.262985
    26  Cl  -0.725009
 Sum of Mulliken atomic charges =   0.00000

 Dipole moment (field-independent basis, Debye):
    X=             -2.3437    Y=             -8.2381    Z=              2.6335  Tot=              8.9607
 Quadrupole moment (field-independent basis, Debye-Ang):
   XX=            -64.4282   YY=            -91.6500   ZZ=            -73.9865
   XY=            -17.4784   XZ=              4.9456   YZ=              8.1884

 Normal termination of Gaussian 09 at Wed Mar  8 19:41:47 2017.
