 Gaussian 09, Revision E.01,
 Gaussian 09:  ES64L-G09RevE.01 30-Nov-2015

 ------------------
 #n CCSD/STO-3G Opt
 ------------------

 ------------------
 Ethane CCSD STO-3G
 ------------------
 Symbolic Z-matrix:
 Charge =  0 Multiplicity = 1

 SCF Done:  E(RHF) =  -78.3059325475     A.U. after    7 cycles
 E2 =    -0.1065503226D+00 EUMP2 =    -0.78412482870140D+02
 SCF Done:  E(RHF) =  -78.3012693565     A.U. after    7 cycles
 E2 =    -0.1112502306D+00 EUMP2 =    -0.78412519587081D+02
 SCF Done:  E(RHF) =  -78.3025266472     A.U. after    6 cycles
 E2 =    -0.1104402382D+00 EUMP2 =    -0.78412966885341D+02
 SCF Done:  E(RHF) =  -78.3025935996     A.U. after    6 cycles
 E2 =    -0.1103973190D+00 EUMP2 =    -0.78412990918623D+02
 Optimization completed.
    -- Stationary point found.

                         Standard orientation:
 ---------------------------------------------------------------------
 Center     Atomic      Atomic             Coordinates (Angstroms)
 Number     Number       Type             X           Y           Z
 ---------------------------------------------------------------------
      1          6           0       -0.780474    0.040374   -0.000001
      2          6           0        0.780474   -0.040374    0.000001
      3          1           0       -1.155704    0.400594    0.982253
      4          1           0       -1.226024   -0.958776   -0.196373
      5          1           0       -1.138131    0.740266   -0.785883
      6          1           0        1.138131   -0.740266    0.785883
      7          1           0        1.226024    0.958776    0.196373
      8          1           0        1.155704   -0.400594   -0.982253
 ---------------------------------------------------------------------

 The electronic state is 1-AG.
 Alpha  occ. eigenvalues --  -11.03760 -11.03725  -0.96642  -0.80107  -0.55952
 Alpha  occ. eigenvalues --   -0.55952  -0.46201  -0.45333  -0.45333
 Alpha virt. eigenvalues --    0.63543   0.63543   0.66550   0.70558   0.74120
 Alpha virt. eigenvalues --    0.76327   0.76327

 Mulliken charges:
               1
     1  C   -0.156334
     2  C   -0.156334
     3  H    0.052111
     4  H    0.052111
     5  H    0.052111
     6  H    0.052111
     7  H    0.052111
     8  H    0.052111
 Sum of Mulliken charges =   0.00000

 Dipole moment (field-independent basis, Debye):
    X=              0.0000    Y=              0.0000    Z=              0.0000  Tot=              0.0000
 Quadrupole moment (field-independent basis, Debye-Ang):
   XX=            -14.4204   YY=            -14.0400   ZZ=            -14.0390
   XY=              0.0197   XZ=              0.0000   YZ=              0.0000

 Normal termination of Gaussian 09 at Tue Feb 21 17:38:21 2017.
