 Gaussian 09, Revision E.01,
 Gaussian 09:  ES64L-G09RevE.01 30-Nov-2015

 ----------------------
 #n CCSD/6-31G(d,p) Opt
 ----------------------

 -------------------
 Ethane CCSD 6-31Gdp
 -------------------
 Symbolic Z-matrix:
 Charge =  0 Multiplicity = 1

 SCF Done:  E(RHF) =  -79.2378303988     A.U. after    9 cycles
 E2 =    -0.3053090387D+00 EUMP2 =    -0.79543139437522D+02
 SCF Done:  E(RHF) =  -79.2381397768     A.U. after    8 cycles
 E2 =    -0.3052217276D+00 EUMP2 =    -0.79543361504391D+02
 SCF Done:  E(RHF) =  -79.2381447348     A.U. after    7 cycles
 E2 =    -0.3052400443D+00 EUMP2 =    -0.79543384779122D+02
 Optimization completed.
    -- Stationary point found.

                         Standard orientation:
 ---------------------------------------------------------------------
 Center     Atomic      Atomic             Coordinates (Angstroms)
 Number     Number       Type             X           Y           Z
 ---------------------------------------------------------------------
      1          6           0       -0.762336    0.039436    0.000000
      2          6           0        0.762336   -0.039436    0.000000
      3          1           0       -1.138202    0.392282    0.960906
      4          1           0       -1.206994   -0.937545   -0.192106
      5          1           0       -1.121011    0.724572   -0.768803
      6          1           0        1.121011   -0.724572    0.768803
      7          1           0        1.206994    0.937545    0.192106
      8          1           0        1.138202   -0.392282   -0.960906
 ---------------------------------------------------------------------

 The electronic state is 1-AG.
 Alpha  occ. eigenvalues --  -11.21264 -11.21205  -1.01760  -0.84119  -0.59568
 Alpha  occ. eigenvalues --   -0.59568  -0.50819  -0.48534  -0.48534
 Alpha virt. eigenvalues --    0.24205   0.30184   0.31641   0.31641   0.33740
 Alpha virt. eigenvalues --    0.33740   0.41303   0.70389   0.73789   0.73789
 Alpha virt. eigenvalues --    0.83188   0.83188   0.93686   1.12762   1.12762

 Mulliken charges:
               1
     1  C   -0.333475
     2  C   -0.333475
     3  H    0.111158
     4  H    0.111158
     5  H    0.111158
     6  H    0.111158
     7  H    0.111158
     8  H    0.111158
 Sum of Mulliken charges =   0.00000

 Dipole moment (field-independent basis, Debye):
    X=              0.0000    Y=              0.0000    Z=              0.0000  Tot=              0.0000
 Quadrupole moment (field-independent basis, Debye-Ang):
   XX=            -15.5294   YY=            -14.9261   ZZ=            -14.9245
   XY=              0.0313   XZ=              0.0000   YZ=              0.0000

 Normal termination of Gaussian 09 at Tue Feb 21 17:32:31 2017.
