 Gaussian 09, Revision E.01,
 Gaussian 09:  ES64L-G09RevE.01 30-Nov-2015

 -------------------
 #n CCSD/LANL2DZ Opt
 -------------------

 -------------------
 Ethane CCSD LANL2DZ
 -------------------
 Symbolic Z-matrix:
 Charge =  0 Multiplicity = 1

 SCF Done:  E(RHF) =  -79.2056342918     A.U. after    9 cycles
 E2 =    -0.1761778715D+00 EUMP2 =    -0.79381812163227D+02
 SCF Done:  E(RHF) =  -79.2031808020     A.U. after    8 cycles
 E2 =    -0.1795945090D+00 EUMP2 =    -0.79382775311025D+02
 SCF Done:  E(RHF) =  -79.2032837501     A.U. after    7 cycles
 E2 =    -0.1795276859D+00 EUMP2 =    -0.79382811435968D+02
 Optimization completed.
    -- Stationary point found.

                         Standard orientation:
 ---------------------------------------------------------------------
 Center     Atomic      Atomic             Coordinates (Angstroms)
 Number     Number       Type             X           Y           Z
 ---------------------------------------------------------------------
      1          6           0       -0.781487    0.040427   -0.000001
      2          6           0        0.781487   -0.040427    0.000001
      3          1           0       -1.159523    0.399669    0.979020
      4          1           0       -1.229611   -0.955225   -0.195727
      5          1           0       -1.142008    0.738224   -0.783295
      6          1           0        1.142008   -0.738224    0.783295
      7          1           0        1.229611    0.955225    0.195727
      8          1           0        1.159523   -0.399669   -0.979020
 ---------------------------------------------------------------------

 The electronic state is 1-AG.
 Alpha  occ. eigenvalues --  -11.22154 -11.22103  -1.00735  -0.83847  -0.58849
 Alpha  occ. eigenvalues --   -0.58849  -0.49750  -0.48225  -0.48225
 Alpha virt. eigenvalues --    0.24885   0.27044   0.32086   0.32086   0.35889
 Alpha virt. eigenvalues --    0.35889   0.38871   0.45685   0.46892   0.46892
 Alpha virt. eigenvalues --    0.51851   0.51851   0.72253   1.15476   1.27984

 Mulliken charges:
               1
     1  C   -0.498925
     2  C   -0.498925
     3  H    0.166308
     4  H    0.166308
     5  H    0.166308
     6  H    0.166308
     7  H    0.166308
     8  H    0.166308
 Sum of Mulliken charges =   0.00000

 Dipole moment (field-independent basis, Debye):
    X=              0.0000    Y=              0.0000    Z=              0.0000  Tot=              0.0000
 Quadrupole moment (field-independent basis, Debye-Ang):
   XX=            -15.6612   YY=            -15.0581   ZZ=            -15.0564
   XY=              0.0313   XZ=              0.0000   YZ=              0.0000

 Normal termination of Gaussian 09 at Tue Feb 21 17:38:22 2017.
