 Gaussian 09, Revision E.01,
 Gaussian 09:  ES64L-G09RevE.01 30-Nov-2015

 -----------------
 #n CCSD/3-21G Opt
 -----------------

 -----------------
 Ethane CCSD 3-21G
 -----------------
 Symbolic Z-matrix:
 Charge =  0 Multiplicity = 1

 SCF Done:  E(RHF) =  -78.7935859918     A.U. after    9 cycles
 E2 =    -0.1882806253D+00 EUMP2 =    -0.78981866617165D+02
 SCF Done:  E(RHF) =  -78.7928671799     A.U. after    7 cycles
 E2 =    -0.1890604297D+00 EUMP2 =    -0.78981927609555D+02
 SCF Done:  E(RHF) =  -78.7929128876     A.U. after    7 cycles
 E2 =    -0.1890473089D+00 EUMP2 =    -0.78981960196491D+02
 Optimization completed.
    -- Stationary point found.

                         Standard orientation:
 ---------------------------------------------------------------------
 Center     Atomic      Atomic             Coordinates (Angstroms)
 Number     Number       Type             X           Y           Z
 ---------------------------------------------------------------------
      1          6           0       -0.777083    0.040199   -0.000001
      2          6           0        0.777083   -0.040199    0.000001
      3          1           0       -1.147788    0.396509    0.971660
      4          1           0       -1.217350   -0.948201   -0.194256
      5          1           0       -1.130405    0.732519   -0.777408
      6          1           0        1.130405   -0.732519    0.777408
      7          1           0        1.217350    0.948201    0.194256
      8          1           0        1.147788   -0.396509   -0.971660
 ---------------------------------------------------------------------

 The electronic state is 1-AG.
 Alpha  occ. eigenvalues --  -11.15914 -11.15893  -1.01205  -0.84087  -0.59413
 Alpha  occ. eigenvalues --   -0.59413  -0.49906  -0.48434  -0.48434
 Alpha virt. eigenvalues --    0.27607   0.33485   0.33485   0.33729   0.36707
 Alpha virt. eigenvalues --    0.36707   0.41817   0.91092   0.91092   0.98441
 Alpha virt. eigenvalues --    1.06169   1.09546   1.09546   1.27090   1.35392

 Mulliken charges:
               1
     1  C   -0.592201
     2  C   -0.592201
     3  H    0.197400
     4  H    0.197400
     5  H    0.197400
     6  H    0.197400
     7  H    0.197400
     8  H    0.197400
 Sum of Mulliken charges =   0.00000

 Dipole moment (field-independent basis, Debye):
    X=              0.0000    Y=              0.0000    Z=              0.0000  Tot=              0.0000
 Quadrupole moment (field-independent basis, Debye-Ang):
   XX=            -15.5855   YY=            -15.0999   ZZ=            -15.0986
   XY=              0.0252   XZ=              0.0000   YZ=              0.0000

 Normal termination of Gaussian 09 at Tue Feb 21 17:31:42 2017.
