 Gaussian 09, Revision E.01,
 Gaussian 09:  ES64L-G09RevE.01 30-Nov-2015

 --------------------
 #n CCSD/6-31G(d) Opt
 --------------------

 ------------------
 Ethane CCSD 6-31Gd
 ------------------
 Symbolic Z-matrix:
 Charge =  0 Multiplicity = 1

 SCF Done:  E(RHF) =  -79.2283419657     A.U. after    9 cycles
 E2 =    -0.2662164592D+00 EUMP2 =    -0.79494558424911D+02
 SCF Done:  E(RHF) =  -79.2282524755     A.U. after    8 cycles
 E2 =    -0.2664128791D+00 EUMP2 =    -0.79494665354577D+02
 SCF Done:  E(RHF) =  -79.2282430434     A.U. after    7 cycles
 E2 =    -0.2664428074D+00 EUMP2 =    -0.79494685850792D+02
 Optimization completed.
    -- Stationary point found.

                         Standard orientation:
 ---------------------------------------------------------------------
 Center     Atomic      Atomic             Coordinates (Angstroms)
 Number     Number       Type             X           Y           Z
 ---------------------------------------------------------------------
      1          6           0       -0.763497    0.039496   -0.000001
      2          6           0        0.763497   -0.039496    0.000001
      3          1           0       -1.142202    0.394364    0.966312
      4          1           0       -1.211381   -0.942944   -0.193186
      5          1           0       -1.124914    0.728524   -0.773129
      6          1           0        1.124914   -0.728524    0.773129
      7          1           0        1.211381    0.942944    0.193186
      8          1           0        1.142202   -0.394364   -0.966312
 ---------------------------------------------------------------------

 The electronic state is 1-AG.
 Alpha  occ. eigenvalues --  -11.21491 -11.21433  -1.01580  -0.83904  -0.59498
 Alpha  occ. eigenvalues --   -0.59498  -0.50884  -0.48528  -0.48528
 Alpha virt. eigenvalues --    0.24118   0.30027   0.31404   0.31404   0.33700
 Alpha virt. eigenvalues --    0.33700   0.41166   0.70817   0.74200   0.74200
 Alpha virt. eigenvalues --    0.85140   0.85140   0.94033   1.15073   1.15073

 Mulliken charges:
               1
     1  C   -0.472279
     2  C   -0.472279
     3  H    0.157426
     4  H    0.157426
     5  H    0.157426
     6  H    0.157426
     7  H    0.157426
     8  H    0.157426
 Sum of Mulliken charges =   0.00000

 Dipole moment (field-independent basis, Debye):
    X=              0.0000    Y=              0.0000    Z=              0.0000  Tot=              0.0000
 Quadrupole moment (field-independent basis, Debye-Ang):
   XX=            -15.6143   YY=            -14.9712   ZZ=            -14.9694
   XY=              0.0334   XZ=              0.0000   YZ=              0.0000

 Normal termination of Gaussian 09 at Tue Feb 21 17:29:37 2017.
