 Gaussian 09, Revision E.01,
 Gaussian 09:  ES64L-G09RevE.01 30-Nov-2015

 ---------------------
 #n MP2/6-31G(d,p) Opt
 ---------------------

 --------------------
 Hydrogen MP2 6-31Gdp
 --------------------
 Symbolic Z-matrix:
 Charge =  0 Multiplicity = 1

 SCF Done:  E(RHF) =  -1.13086799408     A.U. after    5 cycles
 E2 =    -0.2628219650D-01 EUMP2 =    -0.11571501905752D+01
 SCF Done:  E(RHF) =  -1.13133223487     A.U. after    4 cycles
 E2 =    -0.2632888891D-01 EUMP2 =    -0.11576611237842D+01
 Optimization completed.
    -- Stationary point found.

                         Standard orientation:
 ---------------------------------------------------------------------
 Center     Atomic      Atomic             Coordinates (Angstroms)
 Number     Number       Type             X           Y           Z
 ---------------------------------------------------------------------
      1          1           0        0.000000    0.000000    0.366967
      2          1           0        0.000000    0.000000   -0.366967
 ---------------------------------------------------------------------

 The electronic state is 1-SGG.
 Alpha  occ. eigenvalues --   -0.59680
 Alpha virt. eigenvalues --    0.24110   0.76863   1.31591   1.95902   1.95902
 Alpha virt. eigenvalues --    2.71815   2.93821   2.93821   4.56677

 Mulliken charges:
               1
     1  H    0.000000
     2  H    0.000000
 Sum of Mulliken charges =   0.00000

 Dipole moment (field-independent basis, Debye):
    X=              0.0000    Y=              0.0000    Z=              0.0000  Tot=              0.0000
 Quadrupole moment (field-independent basis, Debye-Ang):
   XX=             -2.0519   YY=             -2.0519   ZZ=             -1.5207
   XY=              0.0000   XZ=              0.0000   YZ=              0.0000

 Normal termination of Gaussian 09 at Tue Feb 21 19:19:02 2017.
