 Gaussian 09, Revision E.01,
 Gaussian 09:  ES64L-G09RevE.01 30-Nov-2015

 -------------------
 #n MP2/6-31G(d) Opt
 -------------------

 -------------------
 Hydrogen MP2 6-31Gd
 -------------------
 Symbolic Z-matrix:
 Charge =  0 Multiplicity = 1

 SCF Done:  E(RHF) =  -1.12645586409     A.U. after    4 cycles
 E2 =    -0.1703379690D-01 EUMP2 =    -0.11434896609876D+01
 SCF Done:  E(RHF) =  -1.12679144543     A.U. after    4 cycles
 E2 =    -0.1734924665D-01 EUMP2 =    -0.11441406920748D+01
 SCF Done:  E(RHF) =  -1.12678647067     A.U. after    3 cycles
 E2 =    -0.1735437765D-01 EUMP2 =    -0.11441408483250D+01
 Optimization completed.
    -- Stationary point found.

                         Standard orientation:
 ---------------------------------------------------------------------
 Center     Atomic      Atomic             Coordinates (Angstroms)
 Number     Number       Type             X           Y           Z
 ---------------------------------------------------------------------
      1          1           0        0.000000    0.000000    0.368761
      2          1           0        0.000000    0.000000   -0.368761
 ---------------------------------------------------------------------

 The electronic state is 1-SGG.
 Alpha  occ. eigenvalues --   -0.59657
 Alpha virt. eigenvalues --    0.23914   0.77353   1.40770

 Mulliken charges:
               1
     1  H    0.000000
     2  H    0.000000
 Sum of Mulliken charges =   0.00000

 Dipole moment (field-independent basis, Debye):
    X=              0.0000    Y=              0.0000    Z=              0.0000  Tot=              0.0000
 Quadrupole moment (field-independent basis, Debye-Ang):
   XX=             -2.0392   YY=             -2.0392   ZZ=             -1.6175
   XY=              0.0000   XZ=              0.0000   YZ=              0.0000

 Normal termination of Gaussian 09 at Tue Feb 21 19:15:10 2017.
