 Gaussian 09, Revision E.01,
 Gaussian 09:  ES64L-G09RevE.01 30-Nov-2015

 -----------------
 #n MP2/STO-3G Opt
 -----------------

 -------------------
 Hydrogen MP2 STO-3G
 -------------------
 Symbolic Z-matrix:
 Charge =  0 Multiplicity = 1

 SCF Done:  E(RHF) =  -1.11748741170     A.U. after    1 cycles
 E2 =    -0.1240950822D-01 EUMP2 =    -0.11298969199124D+01
 SCF Done:  E(RHF) =  -1.11726616498     A.U. after    1 cycles
 E2 =    -0.1285559267D-01 EUMP2 =    -0.11301217576524D+01
 SCF Done:  E(RHF) =  -1.11737338933     A.U. after    1 cycles
 E2 =    -0.1276348690D-01 EUMP2 =    -0.11301368762307D+01
 Optimization completed.
    -- Stationary point found.

                         Standard orientation:
 ---------------------------------------------------------------------
 Center     Atomic      Atomic             Coordinates (Angstroms)
 Number     Number       Type             X           Y           Z
 ---------------------------------------------------------------------
      1          1           0        0.000000    0.000000    0.361871
      2          1           0        0.000000    0.000000   -0.361871
 ---------------------------------------------------------------------

 The electronic state is 1-SGG.
 Alpha  occ. eigenvalues --   -0.58534
 Alpha virt. eigenvalues --    0.68822

 Mulliken charges:
               1
     1  H    0.000000
     2  H    0.000000
 Sum of Mulliken charges =   0.00000

 Dipole moment (field-independent basis, Debye):
    X=              0.0000    Y=              0.0000    Z=              0.0000  Tot=              0.0000
 Quadrupole moment (field-independent basis, Debye-Ang):
   XX=             -1.8449   YY=             -1.8449   ZZ=             -1.4391
   XY=              0.0000   XZ=              0.0000   YZ=              0.0000

 Normal termination of Gaussian 09 at Tue Feb 21 19:22:10 2017.
