 Gaussian 09, Revision A.02,
 Gaussian 09:  EM64L-G09RevA.02 11-Jun-2009

 --------------------------------------
 # opt M062X/6-311+G* geom=connectivity
 --------------------------------------

 -------------------
 Title Card Required
 -------------------
 Symbolic Z-matrix:
 Charge =  0 Multiplicity = 2

 SCF Done:  E(UM062X) =  -501.776756291     A.U. after   27 cycles
 SCF Done:  E(UM062X) =  -501.793445313     A.U. after   22 cycles
 SCF Done:  E(UM062X) =  -501.794984544     A.U. after   22 cycles
 SCF Done:  E(UM062X) =  -501.795377051     A.U. after   23 cycles
 SCF Done:  E(UM062X) =  -501.795837241     A.U. after   22 cycles
 SCF Done:  E(UM062X) =  -501.796196616     A.U. after   18 cycles
 SCF Done:  E(UM062X) =  -501.797193613     A.U. after   19 cycles
 SCF Done:  E(UM062X) =  -501.799201575     A.U. after   22 cycles
 SCF Done:  E(UM062X) =  -501.801073377     A.U. after   19 cycles
 SCF Done:  E(UM062X) =  -501.805949625     A.U. after   17 cycles
 SCF Done:  E(UM062X) =  -501.810171821     A.U. after   13 cycles
 SCF Done:  E(UM062X) =  -501.810173752     A.U. after   13 cycles
 SCF Done:  E(UM062X) =  -501.810176039     A.U. after   13 cycles
 SCF Done:  E(UM062X) =  -501.810176605     A.U. after   12 cycles
 SCF Done:  E(UM062X) =  -501.810177666     A.U. after   13 cycles
 SCF Done:  E(UM062X) =  -501.810180084     A.U. after   13 cycles
 SCF Done:  E(UM062X) =  -501.810181272     A.U. after   13 cycles
 SCF Done:  E(UM062X) =  -501.810180465     A.U. after   13 cycles
 SCF Done:  E(UM062X) =  -501.810180865     A.U. after   12 cycles
 SCF Done:  E(UM062X) =  -501.810180978     A.U. after   11 cycles
 Optimization completed.
    -- Stationary point found.

                         Standard orientation:
 ---------------------------------------------------------------------
 Center     Atomic      Atomic             Coordinates (Angstroms)
 Number     Number       Type             X           Y           Z
 ---------------------------------------------------------------------
      1          6           0       -2.265001   -1.009449    1.015739
      2          6           0       -3.316428   -0.173924    1.113077
      3          6           0       -2.378872    0.157781   -0.919311
      4          7           0       -1.750023   -0.932310   -0.274569
      5          1           0       -1.867370   -1.704514    1.739197
      6          1           0       -3.996453   -0.013307    1.934736
      7          1           0       -2.540608    0.075580   -1.995499
      8          7           0       -3.502144    0.456060   -0.114534
      9          6           0       -0.369071   -1.269402   -0.572742
     10          1           0       -0.269298   -1.314583   -1.661524
     11          1           0       -0.179029   -2.278668   -0.193403
     12          6           0        0.638796   -0.279690    0.009485
     13          1           0        0.547520   -0.280441    1.102058
     14          1           0        0.366025    0.726448   -0.325034
     15          6           0        2.071277   -0.609202   -0.396738
     16          1           0        2.313763   -1.638403   -0.101797
     17          1           0        2.156199   -0.578336   -1.490207
     18          6           0        3.096352    0.342520    0.214411
     19          1           0        2.846028    1.373394   -0.064789
     20          1           0        3.025215    0.298812    1.308294
     21          6           0        4.529997    0.036782   -0.211184
     22          1           0        4.775369   -0.996642    0.058808
     23          1           0        4.602244    0.092008   -1.303198
     24          6           0        5.543546    0.987110    0.419594
     25          1           0        6.563465    0.758590    0.103324
     26          1           0        5.333240    2.023817    0.143119
     27          1           0        5.511844    0.925321    1.510710
     28          6           0       -4.135108    1.752461   -0.219120
     29          1           0       -5.045731    1.762317    0.381109
     30          1           0       -3.464324    2.552532    0.117530
     31          1           0       -4.405844    1.939909   -1.258983
 ---------------------------------------------------------------------

 The electronic state is 2-A.
 Alpha  occ. eigenvalues --  -14.77003 -14.76875 -10.56883 -10.56383 -10.56092
 Alpha  occ. eigenvalues --  -10.55947 -10.55831 -10.52993 -10.52816 -10.52704
 Alpha  occ. eigenvalues --  -10.52634 -10.52030  -1.11523  -1.01584  -0.91006
 Alpha  occ. eigenvalues --   -0.87633  -0.84629  -0.81119  -0.78479  -0.73556
 Alpha  occ. eigenvalues --   -0.68119  -0.66621  -0.66057  -0.65415  -0.59753
 Alpha  occ. eigenvalues --   -0.55756  -0.54519  -0.52785  -0.51276  -0.50713
 Alpha  occ. eigenvalues --   -0.49960  -0.49457  -0.47908  -0.47043  -0.45866
 Alpha  occ. eigenvalues --   -0.45753  -0.44426  -0.42863  -0.41713  -0.40998
 Alpha  occ. eigenvalues --   -0.39014  -0.38851  -0.38148  -0.38011  -0.33563
 Alpha  occ. eigenvalues --   -0.29766  -0.15187
 Alpha virt. eigenvalues --    0.01406   0.02114   0.02500   0.02853   0.03701
 Alpha virt. eigenvalues --    0.04128   0.04256   0.04864   0.05205   0.05714
 Alpha virt. eigenvalues --    0.06096   0.06849   0.07093   0.07255   0.07460

  Beta  occ. eigenvalues --  -14.76699 -14.76555 -10.56871 -10.56355 -10.55957
  Beta  occ. eigenvalues --  -10.55840 -10.55593 -10.52995 -10.52816 -10.52702
  Beta  occ. eigenvalues --  -10.52616 -10.52030  -1.10533  -1.00585  -0.90953
  Beta  occ. eigenvalues --   -0.87492  -0.84349  -0.80516  -0.78231  -0.73371
  Beta  occ. eigenvalues --   -0.67908  -0.66052  -0.66023  -0.64679  -0.59347
  Beta  occ. eigenvalues --   -0.55683  -0.53250  -0.52521  -0.50865  -0.50452
  Beta  occ. eigenvalues --   -0.49537  -0.49149  -0.47444  -0.46530  -0.45690
  Beta  occ. eigenvalues --   -0.45356  -0.44071  -0.42148  -0.41601  -0.40855
  Beta  occ. eigenvalues --   -0.38964  -0.38796  -0.38139  -0.37710  -0.30924
  Beta  occ. eigenvalues --   -0.26519
  Beta virt. eigenvalues --   -0.00273   0.01473   0.02173   0.02609   0.02675
  Beta virt. eigenvalues --    0.03656   0.04070   0.04433   0.04938   0.05176
  Beta virt. eigenvalues --    0.05272   0.05651   0.06578   0.06817   0.06970

 Mulliken atomic charges:
              1
     1  C   -0.302477
     2  C   -0.344333
     3  C   -0.557787
     4  N    0.385971
     5  H    0.236958
     6  H    0.247522
     7  H    0.215105
     8  N    0.246814
     9  C   -0.835486
    10  H    0.260809
    11  H    0.259550
    12  C   -0.344187
    13  H    0.254002
    14  H    0.279200
    15  C   -0.484964
    16  H    0.256788
    17  H    0.260465
    18  C   -0.624022
    19  H    0.258827
    20  H    0.255322
    21  C   -0.282962
    22  H    0.249676
    23  H    0.250921
    24  C   -1.016885
    25  H    0.261731
    26  H    0.254144
    27  H    0.253520
    28  C   -0.627204
    29  H    0.231618
    30  H    0.254068
    31  H    0.247294
 Sum of Mulliken atomic charges =   0.00000

 Dipole moment (field-independent basis, Debye):
    X=              0.0981    Y=             -0.1265    Z=              0.5410  Tot=              0.5642
 Quadrupole moment (field-independent basis, Debye-Ang):
   XX=            -74.5518   YY=            -77.4238   ZZ=            -74.9379
   XY=             -5.5576   XZ=             -2.8206   YZ=             -1.7158

 Normal termination of Gaussian 09 at Fri Mar 10 05:55:57 2017.
 Normal termination of Gaussian 09 at Fri Mar 10 05:55:18 2017.
 Normal termination of Gaussian 09 at Fri Mar 10 05:47:18 2017.
