 Gaussian 09, Revision A.02,
 Gaussian 09:  EM64L-G09RevA.02 11-Jun-2009

 --------------------------------------
 # opt M062X/6-311+G* geom=connectivity
 --------------------------------------

 -------------------
 Title Card Required
 -------------------
 Symbolic Z-matrix:
 Charge =  0 Multiplicity = 2

 SCF Done:  E(UM062X) =  -738.784437652     A.U. after   29 cycles
 SCF Done:  E(UM062X) =  -738.788834751     A.U. after   25 cycles
 SCF Done:  E(UM062X) =  -738.791189466     A.U. after   18 cycles
 SCF Done:  E(UM062X) =  -738.792373990     A.U. after   21 cycles
 SCF Done:  E(UM062X) =  -738.792110876     A.U. after   20 cycles
 SCF Done:  E(UM062X) =  -738.793445238     A.U. after   18 cycles
 SCF Done:  E(UM062X) =  -738.793992093     A.U. after   18 cycles
 SCF Done:  E(UM062X) =  -738.794494865     A.U. after   17 cycles
 SCF Done:  E(UM062X) =  -738.794538723     A.U. after   17 cycles
 SCF Done:  E(UM062X) =  -738.794548866     A.U. after   16 cycles
 SCF Done:  E(UM062X) =  -738.794549844     A.U. after   14 cycles
 Optimization completed.
    -- Stationary point found.

                         Standard orientation:
 ---------------------------------------------------------------------
 Center     Atomic      Atomic             Coordinates (Angstroms)
 Number     Number       Type             X           Y           Z
 ---------------------------------------------------------------------
      1         16           0       -0.484275   -0.035440   -0.000398
      2          8           0       -0.446761    0.941423   -1.125109
      3          8           0       -0.447628    0.940961    1.125686
      4          8           0       -1.503862   -1.026522   -0.000218
      5          8           0        0.889367   -0.811666    0.000354
      6          6           0        2.104242   -0.031630    0.000084
      7          1           0        2.144978    0.585310    0.896946
      8          1           0        2.903613   -0.766068    0.000856
      9          1           0        2.145437    0.584008   -0.897642
 ---------------------------------------------------------------------

 The electronic state is 2-A.
 Alpha  occ. eigenvalues --  -90.19917 -19.72764 -19.72727 -19.72222 -19.67976
 Alpha  occ. eigenvalues --  -10.63303  -8.53613  -6.45882  -6.45808  -6.45789
 Alpha  occ. eigenvalues --   -1.37580  -1.23282  -1.21271  -1.20243  -0.87484
 Alpha  occ. eigenvalues --   -0.74710  -0.68128  -0.65378  -0.64297  -0.58459
 Alpha  occ. eigenvalues --   -0.58163  -0.54535  -0.52249  -0.50694  -0.48212
 Alpha  occ. eigenvalues --   -0.46793  -0.45229  -0.44975  -0.43192
 Alpha virt. eigenvalues --    0.00400   0.01775   0.03460   0.03589   0.06323
 Alpha virt. eigenvalues --    0.06928   0.07003   0.10281   0.10300   0.11043
 Alpha virt. eigenvalues --    0.13211   0.14295   0.15965   0.16371   0.18057

  Beta  occ. eigenvalues --  -90.19981 -19.72221 -19.71731 -19.71699 -19.67836
  Beta  occ. eigenvalues --  -10.63305  -8.53637  -6.45937  -6.45881  -6.45845
  Beta  occ. eigenvalues --   -1.36381  -1.22498  -1.20148  -1.16455  -0.87380
  Beta  occ. eigenvalues --   -0.73544  -0.66984  -0.63772  -0.62544  -0.57927
  Beta  occ. eigenvalues --   -0.56312  -0.52005  -0.47691  -0.47242  -0.45656
  Beta  occ. eigenvalues --   -0.44946  -0.44262  -0.41898
  Beta virt. eigenvalues --   -0.20153   0.00472   0.01902   0.03653   0.03678
  Beta virt. eigenvalues --    0.06425   0.06981   0.07141   0.10395   0.10854
  Beta virt. eigenvalues --    0.11103   0.13368   0.14878   0.16534   0.16895

 Mulliken atomic charges:
              1
     1  S    0.565558
     2  O   -0.226413
     3  O   -0.225517
     4  O   -0.056003
     5  O   -0.179744
     6  C   -0.754488
     7  H    0.295426
     8  H    0.285718
     9  H    0.295463
 Sum of Mulliken atomic charges =   0.00000

 Dipole moment (field-independent basis, Debye):
    X=              3.7557    Y=              0.3141    Z=              0.0029  Tot=              3.7688
 Quadrupole moment (field-independent basis, Debye-Ang):
   XX=            -36.8713   YY=            -45.5722   ZZ=            -42.3156
   XY=             -0.8231   XZ=             -0.0015   YZ=              0.0047

 Normal termination of Gaussian 09 at Wed Mar  8 17:45:26 2017.
